  MPI-parallelism will be employed.
------------------------------------------------------------
          Invoking FHI-aims ...
          Version 160328_3
          Compiled on 2017/02/17 at 12:15:24 on host daint102.

          When using FHI-aims, please cite the following reference:

          Volker Blum, Ralf Gehrke, Felix Hanke, Paula Havu,
          Ville Havu, Xinguo Ren, Karsten Reuter, and Matthias Scheffler,
          'Ab Initio Molecular Simulations with Numeric Atom-Centered Orbitals',
          Computer Physics Communications 180, 2175-2196 (2009)

          For any questions about FHI-aims, please visit the aimsclub website
          with its forums and wiki. Contributions to both the forums and the
          wiki are warmly encouraged - they are for you, and everyone is welcome there.

------------------------------------------------------------

  Date     :  20170217, Time     :  122911.594
  Time zero on CPU 1             :   0.200000000000000E-01  s.
  Internal wall clock time zero  :           256566551.594  s.

  Using       48 parallel tasks.
  Task        0 on host nid02314 reporting.
  Task        1 on host nid02314 reporting.
  Task        2 on host nid02314 reporting.
  Task        3 on host nid02314 reporting.
  Task        4 on host nid02314 reporting.
  Task        5 on host nid02314 reporting.
  Task        6 on host nid02314 reporting.
  Task        7 on host nid02314 reporting.
  Task        8 on host nid02314 reporting.
  Task        9 on host nid02314 reporting.
  Task       10 on host nid02314 reporting.
  Task       11 on host nid02314 reporting.
  Task       12 on host nid02315 reporting.
  Task       13 on host nid02315 reporting.
  Task       14 on host nid02315 reporting.
  Task       15 on host nid02315 reporting.
  Task       16 on host nid02315 reporting.
  Task       17 on host nid02315 reporting.
  Task       18 on host nid02315 reporting.
  Task       19 on host nid02315 reporting.
  Task       20 on host nid02315 reporting.
  Task       21 on host nid02315 reporting.
  Task       22 on host nid02315 reporting.
  Task       23 on host nid02315 reporting.
  Task       24 on host nid02316 reporting.
  Task       25 on host nid02316 reporting.
  Task       26 on host nid02316 reporting.
  Task       27 on host nid02316 reporting.
  Task       28 on host nid02316 reporting.
  Task       29 on host nid02316 reporting.
  Task       30 on host nid02316 reporting.
  Task       31 on host nid02316 reporting.
  Task       32 on host nid02316 reporting.
  Task       33 on host nid02316 reporting.
  Task       34 on host nid02316 reporting.
  Task       35 on host nid02316 reporting.
  Task       36 on host nid02344 reporting.
  Task       37 on host nid02344 reporting.
  Task       38 on host nid02344 reporting.
  Task       39 on host nid02344 reporting.
  Task       40 on host nid02344 reporting.
  Task       41 on host nid02344 reporting.
  Task       42 on host nid02344 reporting.
  Task       43 on host nid02344 reporting.
  Task       44 on host nid02344 reporting.
  Task       45 on host nid02344 reporting.
  Task       46 on host nid02344 reporting.
  Task       47 on host nid02344 reporting.

  Performing system and environment tests:
  | Environment variable OMP_NUM_THREADS correctly set to 1.
  | Maximum stacksize for task 0: unlimited
  | Maximum stacksize for task 1: unlimited
  | Maximum stacksize for task 2: unlimited
  | Maximum stacksize for task 3: unlimited
  | Maximum stacksize for task 4: unlimited
  | Maximum stacksize for task 5: unlimited
  | Maximum stacksize for task 6: unlimited
  | Maximum stacksize for task 7: unlimited
  | Maximum stacksize for task 8: unlimited
  | Maximum stacksize for task 9: unlimited
  | Maximum stacksize for task 10: unlimited
  | Maximum stacksize for task 11: unlimited
  | Maximum stacksize for task 12: unlimited
  | Maximum stacksize for task 13: unlimited
  | Maximum stacksize for task 14: unlimited
  | Maximum stacksize for task 15: unlimited
  | Maximum stacksize for task 16: unlimited
  | Maximum stacksize for task 17: unlimited
  | Maximum stacksize for task 18: unlimited
  | Maximum stacksize for task 19: unlimited
  | Maximum stacksize for task 20: unlimited
  | Maximum stacksize for task 21: unlimited
  | Maximum stacksize for task 22: unlimited
  | Maximum stacksize for task 23: unlimited
  | Maximum stacksize for task 24: unlimited
  | Maximum stacksize for task 25: unlimited
  | Maximum stacksize for task 26: unlimited
  | Maximum stacksize for task 27: unlimited
  | Maximum stacksize for task 28: unlimited
  | Maximum stacksize for task 29: unlimited
  | Maximum stacksize for task 30: unlimited
  | Maximum stacksize for task 31: unlimited
  | Maximum stacksize for task 32: unlimited
  | Maximum stacksize for task 33: unlimited
  | Maximum stacksize for task 34: unlimited
  | Maximum stacksize for task 35: unlimited
  | Maximum stacksize for task 36: unlimited
  | Maximum stacksize for task 37: unlimited
  | Maximum stacksize for task 38: unlimited
  | Maximum stacksize for task 39: unlimited
  | Maximum stacksize for task 40: unlimited
  | Maximum stacksize for task 41: unlimited
  | Maximum stacksize for task 42: unlimited
  | Maximum stacksize for task 43: unlimited
  | Maximum stacksize for task 44: unlimited
  | Maximum stacksize for task 45: unlimited
  | Maximum stacksize for task 46: unlimited
  | Maximum stacksize for task 47: unlimited
  | Current stacksize for task 0: unlimited
  | Current stacksize for task 1: unlimited
  | Current stacksize for task 2: unlimited
  | Current stacksize for task 3: unlimited
  | Current stacksize for task 4: unlimited
  | Current stacksize for task 5: unlimited
  | Current stacksize for task 6: unlimited
  | Current stacksize for task 7: unlimited
  | Current stacksize for task 8: unlimited
  | Current stacksize for task 9: unlimited
  | Current stacksize for task 10: unlimited
  | Current stacksize for task 11: unlimited
  | Current stacksize for task 12: unlimited
  | Current stacksize for task 13: unlimited
  | Current stacksize for task 14: unlimited
  | Current stacksize for task 15: unlimited
  | Current stacksize for task 16: unlimited
  | Current stacksize for task 17: unlimited
  | Current stacksize for task 18: unlimited
  | Current stacksize for task 19: unlimited
  | Current stacksize for task 20: unlimited
  | Current stacksize for task 21: unlimited
  | Current stacksize for task 22: unlimited
  | Current stacksize for task 23: unlimited
  | Current stacksize for task 24: unlimited
  | Current stacksize for task 25: unlimited
  | Current stacksize for task 26: unlimited
  | Current stacksize for task 27: unlimited
  | Current stacksize for task 28: unlimited
  | Current stacksize for task 29: unlimited
  | Current stacksize for task 30: unlimited
  | Current stacksize for task 31: unlimited
  | Current stacksize for task 32: unlimited
  | Current stacksize for task 33: unlimited
  | Current stacksize for task 34: unlimited
  | Current stacksize for task 35: unlimited
  | Current stacksize for task 36: unlimited
  | Current stacksize for task 37: unlimited
  | Current stacksize for task 38: unlimited
  | Current stacksize for task 39: unlimited
  | Current stacksize for task 40: unlimited
  | Current stacksize for task 41: unlimited
  | Current stacksize for task 42: unlimited
  | Current stacksize for task 43: unlimited
  | Current stacksize for task 44: unlimited
  | Current stacksize for task 45: unlimited
  | Current stacksize for task 46: unlimited
  | Current stacksize for task 47: unlimited
  | Checking for scalapack...
  | Testing pdtran()...
  | All pdtran() tests passed.

  Obtaining array dimensions for all initial allocations:
  
  -----------------------------------------------------------------------
  Parsing control.in (first pass over file, find array dimensions only).
  The contents of control.in will be repeated verbatim below
  unless switched off by setting 'verbatim_writeout .false.' .
  in the first line of control.in .
  -----------------------------------------------------------------------
  
  #control.in header for database project
  #using def2-QVPZ basis for light and heavy elements
  
  #########################################
    xc                 pbe
    qpe_calc           gw
  #  spin               collinear
  #  default_initial_moment 0
    frequency_points 200
    anacon_type  1
    n_anacon_par 16
    spin none
  #  relativistic   zora scalar 1e-12
    relativistic none
    override_relativity .true.
    partition_type rho_r2
    density_update_method density_matrix
  #########################################
  
  
  #########################################
    occupation_type    gaussian 0.000001
    mixer              pulay
      n_max_pulay        10
      charge_mix_param   0.2
    sc_accuracy_rho    1E-5
    sc_accuracy_eev    1E-5
    sc_accuracy_etot   1E-5
    sc_iter_limit      400
  #########################################
  
  
  #########################################
    prodbas_threshold  1.e-5
    KS_method          lapack
    empty_states       25000
    override_illconditioning .true.
  #########################################
  ################################################################################
  #
  #  FHI-aims code project
  #  VB, Fritz-Haber Institut, 2007
  #
  #  Suggested "safe" defaults for C atom (to be pasted into control.in file)
  #
  ################################################################################
    species        C
     include_min_basis   false
     pure_gauss          true
     cut_pot             6.0  2.5  1.0
     l_hartree           8
     basis_dep_cutoff    0.d0
     radial_base         100 7.0
     radial_multiplier   8
     angular_grids auto
     angular             1202
     angular_acc         1.0e-08
     angular_min         110
     basis_acc           1.0e-5
  #     global species definitions
      nucleus             6
      mass                12.0107
  #
  #
  #
  ################################################################################
  #
  #  Definition of "minimal" basis
  #
  ################################################################################
  #     valence basis states
      valence      2  s   2.
      valence      2  p   2.
  #     ion occupancy
      ion_occ      2  s   1.
      ion_occ      2  p   1.
  ################################################################################
  #
  #  Suggested additional basis functions. For production calculations,
  #  uncomment them one after another (the most important basis functions are
  #  listed first).
  #
  #  Constructed for dimers: 1.0 A, 1.25 A, 1.5 A, 2.0 A, 3.0 A
  #
  ################################################################################
  #  "First tier" - improvements: -1214.57 meV to -155.61 meV
  #  "Second tier" - improvements: -67.75 meV to -5.23 meV
  #  "Third tier" - improvements: -2.43 meV to -0.60 meV
  #  "Fourth tier" - improvements: -0.39 meV to -0.18 meV
  #  Further basis functions - improvements: -0.08 meV and below
  # C def2-TZVPP
   gaussian 0 6
     13575.3496820            0.0002225
      2035.2333680            0.0017233
       463.2256236            0.0089256
       131.2001960            0.0357280
        42.8530159            0.1107626
        15.5841858            0.2429563
   gaussian 0 2
         6.2067139            0.4144026
         2.5764897            0.2374497
   gaussian 0 1 0.57696339419
   gaussian 0 1 0.22972831358
    gaussian           0          1   0.095164
   gaussian 1 4
        34.6972322            0.0053334
         7.9582623            0.0358641
         2.3780827            0.1421587
         0.8143321            0.3427047
   gaussian 1 1 0.28887547253
   gaussian 1 1 0.10056823671
   gaussian 2 1 1.09700000
   gaussian 2 1 0.31800000
   gaussian 3 1 0.76100000
  ################################################################################
  #
  #  FHI-aims code project
  #  VB, Fritz-Haber Institut, 2007
  #
  #  Suggested "safe" defaults for O atom (to be pasted into control.in file)
  #
  ################################################################################
    species        O
     include_min_basis   false
     pure_gauss          true
     cut_pot             6.0  2.5  1.0
     l_hartree           8
     basis_dep_cutoff    0.d0
     radial_base         100 7.0
     radial_multiplier   8
     angular_grids auto
     angular             1202
     angular_acc         1.0e-08
     angular_min         110
     basis_acc           1.0e-5
  #     global species definitions
      nucleus             8
      mass                15.9994
  #
  #
  #
  ################################################################################
  #
  #  Definition of "minimal" basis
  #
  ################################################################################
  #     valence basis states
      valence      2  s   2.
      valence      2  p   4.
  #     ion occupancy
      ion_occ      2  s   1.
      ion_occ      2  p   3.
  ################################################################################
  #
  #  Suggested additional basis functions. For production calculations,
  #  uncomment them one after another (the most important basis functions are
  #  listed first).
  #
  #  Constructed for dimers: 1.0 A, 1.208 A, 1.5 A, 2.0 A, 3.0 A
  #
  ################################################################################
  #  "First tier" - improvements: -699.05 meV to -159.38 meV
  #  "Second tier" - improvements: -49.91 meV to -5.39 meV
  #  "Third tier" - improvements: -2.83 meV to -0.50 meV
  #  "Fourth tier" - improvements: -0.40 meV to -0.12 meV
  # Further basis functions - -0.08 meV and below
  # O def2-TZVPP
   gaussian 0 6
     27032.3826310            0.0002173
      4052.3871392            0.0016839
       922.3272271            0.0087396
       261.2407099            0.0352400
        85.3546414            0.1115352
        31.0350352            0.2558895
   gaussian 0 2
        12.2608607            0.3976873
         4.9987076            0.2462785
   gaussian 0 1 1.1703108158
   gaussian 0 1 0.46474740994
   gaussian 0 1 0.18504536357
   gaussian 1 4
        63.2749548            0.0060685
        14.6270494            0.0419126
         4.4501223            0.1615384
         1.5275800            0.3570695
   gaussian 1 1 0.52935117943
   gaussian 1 1 0.17478421270
   gaussian 2 1 2.31400000
   gaussian 2 1 0.64500000
   gaussian 3 1 1.42800000
  ################################################################################
  #
  #  FHI-aims code project
  #  VB, Fritz-Haber Institut, 2007
  #
  #  Suggested "safe" defaults for H atom (to be pasted into control.in file)
  #
  ################################################################################
    species        H
     include_min_basis   false
     pure_gauss          true
     cut_pot             6.0  2.5  1.0
     l_hartree           8
     basis_dep_cutoff    0.d0
     radial_base         100 7.0
     radial_multiplier   8
     angular_grids auto
     angular             1202
     angular_acc         1.0e-08
     angular_min         110
     basis_acc           1.0e-5
  #     global species definitions
      nucleus             1
      mass                1.00794
  #
  #
  #
  ################################################################################
  #
  #  Definition of "minimal" basis
  #
  ################################################################################
  #     valence basis states
      valence      1  s   1.
  #     ion occupancy
      ion_occ      1  s   0.5
  ################################################################################
  #
  #  Suggested additional basis functions. For production calculations,
  #  uncomment them one after another (the most important basis functions are
  #  listed first).
  #
  #  Basis constructed for dimers: 0.5 A, 0.7 A, 1.0 A, 1.5 A, 2.5 A
  #
  ################################################################################
  #  "First tier" - improvements: -1014.90 meV to -62.69 meV
  #  "Second tier" - improvements: -12.89 meV to -1.83 meV
  #  "Third tier" - improvements: -0.25 meV to -0.12 meV
  # H def2-TZVPP
   gaussian 0 3
        34.0613410            0.0060252
         5.1235746            0.0450211
         1.1646626            0.2018973
   gaussian 0 1 0.32723041
   gaussian 0 1 0.10307241
   gaussian 1 1 1.40700000
   gaussian 1 1 0.38800000
   gaussian 2 1 1.05700000
  
  -----------------------------------------------------------------------
  Completed first pass over input file control.in .
  -----------------------------------------------------------------------
  
  
  -----------------------------------------------------------------------
  Parsing geometry.in (first pass over file, find array dimensions only).
  The contents of geometry.in will be repeated verbatim below
  unless switched off by setting 'verbatim_writeout .false.' .
  in the first line of geometry.in .
  -----------------------------------------------------------------------
  
  atom 0.0000 0.0000 0.0000 C
  atom 0.0000 0.0000 1.208 O
  atom 0.9490 0.0000 -0.5873 H
  atom -0.9490 0.0000 -0.5873 H
  
  -----------------------------------------------------------------------
  Completed first pass over input file geometry.in .
  -----------------------------------------------------------------------
  

  Basic array size parameters:
  | Number of species                 :        3
  | Number of atoms                   :        4
  | Max. basis fn. angular momentum   :        3
  | Max. atomic/ionic basis occupied n:        2
  | Max. number of basis fn. types    :        1
  | Max. radial fns per species/type  :       14
  | Max. logarithmic grid size        :     1430
  | Max. radial integration grid size :      807
  | Max. angular integration grid size:     1202
  | Max. angular grid division number :        8
  | Radial grid for Hartree potential :     1430
  | Number of spin channels           :        1

------------------------------------------------------------
          Reading file control.in.
------------------------------------------------------------
  XC: Using PBE gradient-corrected functionals.
  GW quasiparticle calculation of excited states will be started after the DFT/HF calculation.
  Number of frequency points used for the self-energy calculation:    200
  Using Pade approximation for analytical continuation.
  Number of fitting parameters for analytical continuation :     16
  Spin treatment: No spin polarisation.
  Non-relativistic treatment of kinetic energy.
  override_relativity: Explicitly overriding any built-in relativity checks.
  If you use this flag, you should really know what you are doing.
  Partition function in integrals calculations: rho / r^2
  Occupation type: Gaussian broadening, width =   0.100000E-05 eV.
  Using pulay charge density mixing.
  Pulay mixing - number of memorized iterations:   10
  Charge density mixing - mixing parameter:     0.2000
  Convergence accuracy of self-consistent charge density:  0.1000E-04
  Convergence accuracy of sum of eigenvalues:  0.1000E-04
  Convergence accuracy of total energy:  0.1000E-04
  Maximum number of s.-c. iterations  :   400
  Threshold for auxiliary basis singularities:  0.1000E-04
  Kohn-Sham eigenvalues and eigenfunctions calculated by lapack diagonalisation (D&C).
  Number of empty states per atom:    25000
  override_illconditioning: Explicitly overriding any built-in checks for an ill-conditioned overlap matrix.
  *** WARNING: If you use this flag, you should really know what you are doing.
  *** DO NOT keep this flag set by default in all your control.in files.
 
  Reading configuration options for species C                   .
  | Found request to include minimal basis fns. :     F
  | Found request to include pure gaussian fns. :     T
  | Found cutoff potl. onset [A], width [A], scale factor :    6.00000    2.50000    1.00000
  | Found l_max for Hartree potential  :   8
  | Threshold for basis-dependent cutoff potential is   0.000000E+00
  | Found data for basic radial integration grid :   100 points, outermost radius =    7.000 A
  | Found multiplier for basic radial grid :   8
  | Found angular grid specification: automatic.
  | Found max. number of angular integration points per radial shell :  1202
  | Found accuracy criterion for angular integrations : 0.1000E-07
  | Will adapt angular grid densities automatically.
  | Found min. number of angular integration points per radial shell :   110
  | Found basis singularity cutoff : 0.1000E-04
  | Found nuclear charge :   6.0000
  | Found atomic mass :    12.0107000000000      amu
  | Found free-atom valence shell :  2 s   2.000
  | Found free-atom valence shell :  2 p   2.000
  | No ionic wave fns used. Skipping ion_occ.
  | No ionic wave fns used. Skipping ion_occ.
  | Found contracted cartesian Gaussian basis function :  L = 0 ,   6 elementary Gaussians:
  |   alpha = 0.135753E+05 weight = 0.222500E-03
  |   alpha = 0.203523E+04 weight = 0.172330E-02
  |   alpha = 0.463226E+03 weight = 0.892560E-02
  |   alpha = 0.131200E+03 weight = 0.357280E-01
  |   alpha = 0.428530E+02 weight = 0.110763E+00
  |   alpha = 0.155842E+02 weight = 0.242956E+00
  |   In terms of angular momentum, this radial function adds: 
  |     1 s-type basis function
  | Found contracted cartesian Gaussian basis function :  L = 0 ,   2 elementary Gaussians:
  |   alpha = 0.620671E+01 weight = 0.414403E+00
  |   alpha = 0.257649E+01 weight = 0.237450E+00
  |   In terms of angular momentum, this radial function adds: 
  |     1 s-type basis function
  | Found primitive cartesian Gaussian basis function :  0 0.576963E+00
  |   In terms of angular momentum, this radial function adds: 
  |     1 s-type basis function
  | Found primitive cartesian Gaussian basis function :  0 0.229728E+00
  |   In terms of angular momentum, this radial function adds: 
  |     1 s-type basis function
  | Found primitive cartesian Gaussian basis function :  0 0.951640E-01
  |   In terms of angular momentum, this radial function adds: 
  |     1 s-type basis function
  | Found contracted cartesian Gaussian basis function :  L = 1 ,   4 elementary Gaussians:
  |   alpha = 0.346972E+02 weight = 0.533340E-02
  |   alpha = 0.795826E+01 weight = 0.358641E-01
  |   alpha = 0.237808E+01 weight = 0.142159E+00
  |   alpha = 0.814332E+00 weight = 0.342705E+00
  |   In terms of angular momentum, this radial function adds: 
  |     3 p-type basis functions
  | Found primitive cartesian Gaussian basis function :  1 0.288875E+00
  |   In terms of angular momentum, this radial function adds: 
  |     3 p-type basis functions
  | Found primitive cartesian Gaussian basis function :  1 0.100568E+00
  |   In terms of angular momentum, this radial function adds: 
  |     3 p-type basis functions
  | Found primitive cartesian Gaussian basis function :  2 0.109700E+01
  |   In terms of angular momentum, this radial function adds: 
  |     5 d-type basis functions
  | Found primitive cartesian Gaussian basis function :  2 0.318000E+00
  |   In terms of angular momentum, this radial function adds: 
  |     5 d-type basis functions
  | Found primitive cartesian Gaussian basis function :  3 0.761000E+00
  |   In terms of angular momentum, this radial function adds: 
  |     7 f-type basis functions
  Species C                   : Missing cutoff potential type.
  Defaulting to exp(1/x)/(1-x)^2 type cutoff potential.
  Species C : No 'logarithmic' tag. Using default grid for free atom:
  | Default logarithmic grid data [bohr] : 0.1000E-03 0.1000E+03 0.1012E+01
  Species C                   : Using default innermost maximum threshold i_radial=  2 for radial functions.
  Species C                   : Default cutoff onset for free atom density etc. is infinite
  since the product basis is used (hybrid functionals, Hartree-Fock, GW etc.).
  Species C                   : Basic radial grid will be enhanced according to radial_multiplier =   8, to contain   807 grid points.
 
  Reading configuration options for species O                   .
  | Found request to include minimal basis fns. :     F
  | Found request to include pure gaussian fns. :     T
  | Found cutoff potl. onset [A], width [A], scale factor :    6.00000    2.50000    1.00000
  | Found l_max for Hartree potential  :   8
  | Threshold for basis-dependent cutoff potential is   0.000000E+00
  | Found data for basic radial integration grid :   100 points, outermost radius =    7.000 A
  | Found multiplier for basic radial grid :   8
  | Found angular grid specification: automatic.
  | Found max. number of angular integration points per radial shell :  1202
  | Found accuracy criterion for angular integrations : 0.1000E-07
  | Will adapt angular grid densities automatically.
  | Found min. number of angular integration points per radial shell :   110
  | Found basis singularity cutoff : 0.1000E-04
  | Found nuclear charge :   8.0000
  | Found atomic mass :    15.9994000000000      amu
  | Found free-atom valence shell :  2 s   2.000
  | Found free-atom valence shell :  2 p   4.000
  | No ionic wave fns used. Skipping ion_occ.
  | No ionic wave fns used. Skipping ion_occ.
  | Found contracted cartesian Gaussian basis function :  L = 0 ,   6 elementary Gaussians:
  |   alpha = 0.270324E+05 weight = 0.217300E-03
  |   alpha = 0.405239E+04 weight = 0.168390E-02
  |   alpha = 0.922327E+03 weight = 0.873960E-02
  |   alpha = 0.261241E+03 weight = 0.352400E-01
  |   alpha = 0.853546E+02 weight = 0.111535E+00
  |   alpha = 0.310350E+02 weight = 0.255889E+00
  |   In terms of angular momentum, this radial function adds: 
  |     1 s-type basis function
  | Found contracted cartesian Gaussian basis function :  L = 0 ,   2 elementary Gaussians:
  |   alpha = 0.122609E+02 weight = 0.397687E+00
  |   alpha = 0.499871E+01 weight = 0.246279E+00
  |   In terms of angular momentum, this radial function adds: 
  |     1 s-type basis function
  | Found primitive cartesian Gaussian basis function :  0 0.117031E+01
  |   In terms of angular momentum, this radial function adds: 
  |     1 s-type basis function
  | Found primitive cartesian Gaussian basis function :  0 0.464747E+00
  |   In terms of angular momentum, this radial function adds: 
  |     1 s-type basis function
  | Found primitive cartesian Gaussian basis function :  0 0.185045E+00
  |   In terms of angular momentum, this radial function adds: 
  |     1 s-type basis function
  | Found contracted cartesian Gaussian basis function :  L = 1 ,   4 elementary Gaussians:
  |   alpha = 0.632750E+02 weight = 0.606850E-02
  |   alpha = 0.146270E+02 weight = 0.419126E-01
  |   alpha = 0.445012E+01 weight = 0.161538E+00
  |   alpha = 0.152758E+01 weight = 0.357069E+00
  |   In terms of angular momentum, this radial function adds: 
  |     3 p-type basis functions
  | Found primitive cartesian Gaussian basis function :  1 0.529351E+00
  |   In terms of angular momentum, this radial function adds: 
  |     3 p-type basis functions
  | Found primitive cartesian Gaussian basis function :  1 0.174784E+00
  |   In terms of angular momentum, this radial function adds: 
  |     3 p-type basis functions
  | Found primitive cartesian Gaussian basis function :  2 0.231400E+01
  |   In terms of angular momentum, this radial function adds: 
  |     5 d-type basis functions
  | Found primitive cartesian Gaussian basis function :  2 0.645000E+00
  |   In terms of angular momentum, this radial function adds: 
  |     5 d-type basis functions
  | Found primitive cartesian Gaussian basis function :  3 0.142800E+01
  |   In terms of angular momentum, this radial function adds: 
  |     7 f-type basis functions
  Species O                   : Missing cutoff potential type.
  Defaulting to exp(1/x)/(1-x)^2 type cutoff potential.
  Species O : No 'logarithmic' tag. Using default grid for free atom:
  | Default logarithmic grid data [bohr] : 0.1000E-03 0.1000E+03 0.1012E+01
  Species O                   : Using default innermost maximum threshold i_radial=  2 for radial functions.
  Species O                   : Default cutoff onset for free atom density etc. is infinite
  since the product basis is used (hybrid functionals, Hartree-Fock, GW etc.).
  Species O                   : Basic radial grid will be enhanced according to radial_multiplier =   8, to contain   807 grid points.
 
  Reading configuration options for species H                   .
  | Found request to include minimal basis fns. :     F
  | Found request to include pure gaussian fns. :     T
  | Found cutoff potl. onset [A], width [A], scale factor :    6.00000    2.50000    1.00000
  | Found l_max for Hartree potential  :   8
  | Threshold for basis-dependent cutoff potential is   0.000000E+00
  | Found data for basic radial integration grid :   100 points, outermost radius =    7.000 A
  | Found multiplier for basic radial grid :   8
  | Found angular grid specification: automatic.
  | Found max. number of angular integration points per radial shell :  1202
  | Found accuracy criterion for angular integrations : 0.1000E-07
  | Will adapt angular grid densities automatically.
  | Found min. number of angular integration points per radial shell :   110
  | Found basis singularity cutoff : 0.1000E-04
  | Found nuclear charge :   1.0000
  | Found atomic mass :    1.00794000000000      amu
  | Found free-atom valence shell :  1 s   1.000
  | No ionic wave fns used. Skipping ion_occ.
  | Found contracted cartesian Gaussian basis function :  L = 0 ,   3 elementary Gaussians:
  |   alpha = 0.340613E+02 weight = 0.602520E-02
  |   alpha = 0.512357E+01 weight = 0.450211E-01
  |   alpha = 0.116466E+01 weight = 0.201897E+00
  |   In terms of angular momentum, this radial function adds: 
  |     1 s-type basis function
  | Found primitive cartesian Gaussian basis function :  0 0.327230E+00
  |   In terms of angular momentum, this radial function adds: 
  |     1 s-type basis function
  | Found primitive cartesian Gaussian basis function :  0 0.103072E+00
  |   In terms of angular momentum, this radial function adds: 
  |     1 s-type basis function
  | Found primitive cartesian Gaussian basis function :  1 0.140700E+01
  |   In terms of angular momentum, this radial function adds: 
  |     3 p-type basis functions
  | Found primitive cartesian Gaussian basis function :  1 0.388000E+00
  |   In terms of angular momentum, this radial function adds: 
  |     3 p-type basis functions
  | Found primitive cartesian Gaussian basis function :  2 0.105700E+01
  |   In terms of angular momentum, this radial function adds: 
  |     5 d-type basis functions
  Species H                   : Missing cutoff potential type.
  Defaulting to exp(1/x)/(1-x)^2 type cutoff potential.
  Species H : No 'logarithmic' tag. Using default grid for free atom:
  | Default logarithmic grid data [bohr] : 0.1000E-03 0.1000E+03 0.1012E+01
  Species H                   : Using default innermost maximum threshold i_radial=  2 for radial functions.
  Species H                   : Default cutoff onset for free atom density etc. is infinite
  since the product basis is used (hybrid functionals, Hartree-Fock, GW etc.).
  Species H                   : Basic radial grid will be enhanced according to radial_multiplier =   8, to contain   807 grid points.
 
  Finished reading input file 'control.in'. Consistency checks are next.
 
  Explicit treatment of the Coulomb operator is needed, but the RI method is not specified.
  Coulomb operator: Defaulting to 'RI-V' resolution of identity - RI_type = V 
  Species C: Using default value for prodbas_acc =   1.000000E-02.
  Species C: Using default value max_l_prodbas =     5.
  Explicit treatment of the Coulomb operator is needed, but the RI method is not specified.
  Coulomb operator: Defaulting to 'RI-V' resolution of identity - RI_type = V 
  Species O: Using default value for prodbas_acc =   1.000000E-02.
  Species O: Using default value max_l_prodbas =     5.
  Explicit treatment of the Coulomb operator is needed, but the RI method is not specified.
  Coulomb operator: Defaulting to 'RI-V' resolution of identity - RI_type = V 
  Species H: Using default value for prodbas_acc =   1.000000E-02.
  Species H: Using default value max_l_prodbas =     5.
  Target number of points in a grid batch is not set. Defaulting to  100
  Method for grid partitioning is not set. Defaulting to parallel hash+maxmin partitioning.
  Batch size limit is not set. Defaulting to    200
  By default, will store active basis functions for each batch.
  If in need of memory, prune_basis_once .false. can be used to disable this option.
  communication_type for Hartree potential was not specified.
  Defaulting to calc_hartree .
  Pulay mixer: Number of initial linear mixing iterations not set.
  Defaulting to    0 iterations.
  Work space size for distributed Hartree potential not set.
  Defaulting to   0.200000E+03 MB.
  Algorithm-dependent basis array size parameters:
  | n_max_pulay                         :       10
  Calculation of forces was not defined in control.in. No forces will be calculated.
  Geometry relaxation not requested: no relaxation will be performed.
  No accuracy limit for integral partition fn. given. Defaulting to  0.1000E-14.
  No threshold value for u(r) in integrations given. Defaulting to  0.1000E-05.
  No accuracy for occupation numbers given. Defaulting to  0.1000E-07.
  No threshold value for occupation numbers given. Defaulting to  0.0000E+00.
  No accuracy for fermi level given. Defaulting to  0.1000E-19.
  Maximum # of iterations to find E_F not set. Defaulting to  200.
  Will not use alltoall communication since running on < 1024 CPUs.
  Threshold for basis singularities not set.
  Default threshold for basis singularities:  0.1000E-04
  Partitioning for Hartree potential was not defined. Using partition_type for integrals.
  | Reporting present value of keyword multip_moments_threshold  :       0.10000000E-09
  | This value may affect high angular momentum components of the Hartree potential in periodic systems.
  * Doing correlated calculations, so all empty single-particle states will be included.
  No q(lm)/r^(l+1) cutoff set for long-range Hartree potential.
  | Using default value of  0.100000E-09 .
  | Verify using the multipole_threshold keyword.
  Defaulting to new monopole extrapolation.
  Density update method: density matrix based density update selected.
  Default to 1D ("use_logsbt") integrations for auxiliary 2-center integrals.
  Default onset of logarithmic r-grid for SBT is-38.000000000000
  Default onset of logarithmic k-grid for SBT is-25.000000000000
  Default range of logarithmic r- and k-grid for SBT is 45.000000000000
  Default number of logarithmic r- and k-grid for SBT is  4096
------------------------------------------------------------


------------------------------------------------------------
          Reading geometry description geometry.in.
------------------------------------------------------------
  Input structure read successfully.
  The structure contains        4 atoms,  and a total of         16.000 electrons.

  Input geometry:
  | No unit cell requested.
  | Atomic structure:
  |       Atom                x [A]            y [A]            z [A]
  |    1: Species C              0.000000         0.000000         0.000000
  |    2: Species O              0.000000         0.000000         1.208000
  |    3: Species H              0.949000         0.000000        -0.587300
  |    4: Species H             -0.949000         0.000000        -0.587300
  |

  | The smallest distance between any two atoms is         1.11602970 AA.
  |
  | The first atom of this pair is atom number                      1 .
  | The second atom of this pair is atom number                     3 .

  Number of empty states per atom not set in control.in .
  | Since you are using a method that relies on the unoccupied spectrum
  | (MP2,GW,RPA et al.), will use the full Hamiltonian size (see below)
  | as the max. possible number of states (occupied plus empty).

  Structure-dependent array size parameters: 
  | Maximum number of distinct radial functions  :       28
  | Maximum number of basis functions            :       90
  | Number of Kohn-Sham states (occupied + empty):       90
------------------------------------------------------------

------------------------------------------------------------
          Preparing all fixed parts of the calculation.
------------------------------------------------------------
  Determining machine precision:
    2.225073858507201E-308
  Setting up grids for atomic and cluster calculations.
 
 * Minimum radial grid point for logarithmic grid of species            1
 * , r_min =   1.666666624563125E-005 ,
 * is chosen above the minimum radial integration grid point,
 * r_min =   5.159655215165398E-006 .
 * Setting r_grid_min to   2.579827607582699E-006 .
 
 
 * Minimum radial grid point for logarithmic grid of species            2
 * , r_min =   1.249999968422344E-005 ,
 * is chosen above the minimum radial integration grid point,
 * r_min =   2.063866827914612E-005 .
 * Setting r_grid_min to   2.579827607582699E-006 .
 
 
 * Minimum radial grid point for logarithmic grid of species            3
 * , r_min =   9.999999747378752E-005 ,
 * is chosen above the minimum radial integration grid point,
 * r_min =   4.643718145034435E-005 .
 * Setting r_grid_min to   2.579827607582699E-006 .
 

  Creating wave function, potential, and density for free atoms.

  Species: C

  List of occupied orbitals and eigenvalues:
    n    l              occ      energy [Ha]    energy [eV]
    1    0           2.0000       -10.042041      -273.2578
    2    0           2.0000        -0.504901       -13.7390
    2    1           2.0000        -0.194353        -5.2886


  Species: O

  List of occupied orbitals and eigenvalues:
    n    l              occ      energy [Ha]    energy [eV]
    1    0           2.0000       -18.898644      -514.2583
    2    0           2.0000        -0.878848       -23.9147
    2    1           4.0000        -0.332128        -9.0377


  Species: H

  List of occupied orbitals and eigenvalues:
    n    l              occ      energy [Ha]    energy [eV]
    1    0           1.0000        -0.238600        -6.4926

  Creating fixed part of basis set: Ionic, confined, hydrogenic.
 
  C                    Gaussian:
 
  List of cartesian Gaussian basis orbitals: 
    L    l
    0    0
    0    0
    0    0
    0    0
    0    0
    1    1
    1    1
    1    1
    2    2
    2    2
    3    3
 
 
  O                    Gaussian:
 
  List of cartesian Gaussian basis orbitals: 
    L    l
    0    0
    0    0
    0    0
    0    0
    0    0
    1    1
    1    1
    1    1
    2    2
    2    2
    3    3
 
 
  H                    Gaussian:
 
  List of cartesian Gaussian basis orbitals: 
    L    l
    0    0
    0    0
    0    0
    1    1
    1    1
    2    2
 

  Adding cutoff potential to free-atom effective potential.
  Creating atomic-like basis functions for current effective potential.
  Assembling full basis from fixed parts.
  | Species C : gaussian orbital   0 s accepted.
  | Species C : gaussian orbital   0 s accepted.
  | Species C : gaussian orbital   0 s accepted.
  | Species C : gaussian orbital   0 s accepted.
  | Species C : gaussian orbital   0 s accepted.
  | Species C : gaussian orbital   1 p accepted.
  | Species C : gaussian orbital   1 p accepted.
  | Species C : gaussian orbital   1 p accepted.
  | Species C : gaussian orbital   2 d accepted.
  | Species C : gaussian orbital   2 d accepted.
  | Species C : gaussian orbital   3 f accepted.
  | Species O : gaussian orbital   0 s accepted.
  | Species O : gaussian orbital   0 s accepted.
  | Species O : gaussian orbital   0 s accepted.
  | Species O : gaussian orbital   0 s accepted.
  | Species O : gaussian orbital   0 s accepted.
  | Species O : gaussian orbital   1 p accepted.
  | Species O : gaussian orbital   1 p accepted.
  | Species O : gaussian orbital   1 p accepted.
  | Species O : gaussian orbital   2 d accepted.
  | Species O : gaussian orbital   2 d accepted.
  | Species O : gaussian orbital   3 f accepted.
  | Species H : gaussian orbital   0 s accepted.
  | Species H : gaussian orbital   0 s accepted.
  | Species H : gaussian orbital   0 s accepted.
  | Species H : gaussian orbital   1 p accepted.
  | Species H : gaussian orbital   1 p accepted.
  | Species H : gaussian orbital   2 d accepted.
 
  Basis size parameters after reduction:
  | Total number of radial functions:       28
  | Total number of basis functions :       90
 
  Testing on-site integration grid accuracy.
  |  Species  Function  <phi|h_atom|phi> (log., in eV)  <phi|h_atom|phi> (rad., in eV)
           1        1               -127.5551147475               -127.5551157255
           1        2                292.5046241342                292.5046236532
           1        3                 74.6213879360                 74.6213878776
           1        4                 48.6349809945                 48.6349808676
           1        5                 27.8551899556                 27.8551897032
           1        6                  2.8139960720                  2.8139960888
           1        7                 19.8873728727                 19.8873728275
           1        8                 13.1720834252                 13.1720833091
           1        9                 60.2782677535                 60.2782675751
           1       10                 33.7735476026                 33.7735473451
           1       11                 70.0674052385                 70.0674049314
           2       12               -196.1348184954               -196.1348229198
           2       13                563.3101462869                563.3101445954
           2       14                159.6664738327                159.6664735823
           2       15                102.3768757000                102.3768753733
           2       16                 55.9147962474                 55.9147957083
           2       17                  4.4897430008                  4.4897430239
           2       18                 37.4855554059                 37.4855553283
           2       19                 23.2654606573                 23.2654604647
           2       20                129.4831754563                129.4831750919
           2       21                 69.5972705989                 69.5972701118
           2       22                134.2249975391                134.2249969446
           3       23                 12.8083319129                 12.8083319053
           3       24                 28.6088626868                 28.6088626584
           3       25                 16.8984703574                 16.8984702908
           3       26                 69.2490946069                 69.2490945149
           3       27                 40.6306508240                 40.6306506436
           3       28                 84.5339585167                 84.5339583046

  Preparing densities etc. for the partition functions (integrals / Hartree potential).

  Preparations completed.
  max(cpu_time)          :      0.300 s.
  Wall clock time (cpu1) :      0.299 s.
------------------------------------------------------------

------------------------------------------------------------
          Begin self-consistency loop: Initialization.

          Date     :  20170217, Time     :  122911.942
------------------------------------------------------------

  Initializing index lists of integration centers etc. from given atomic structure:
  | Number of centers in hartree potential         :         4
  | Number of centers in hartree multipole         :         4
  | Number of centers in electron density summation:         4
  | Number of centers in basis integrals           :         4
  | Number of centers in integrals                 :         4
  | Number of centers in hamiltonian               :         4
  | Estimated number of non-zero basis functions for the Hamiltonian :       89 in task   0
  | Estimated number of non-zero basis functions for the Hamiltonian :       89 in task   1
  | Estimated number of non-zero basis functions for the Hamiltonian :       89 in task   2
  | Estimated number of non-zero basis functions for the Hamiltonian :       89 in task   3
  | Estimated number of non-zero basis functions for the Hamiltonian :       89 in task   4
  | Estimated number of non-zero basis functions for the Hamiltonian :       89 in task   5
  | Estimated number of non-zero basis functions for the Hamiltonian :       89 in task   6
  | Estimated number of non-zero basis functions for the Hamiltonian :       89 in task   7
  | Estimated number of non-zero basis functions for the Hamiltonian :       89 in task   8
  | Estimated number of non-zero basis functions for the Hamiltonian :       89 in task   9
  | Estimated number of non-zero basis functions for the Hamiltonian :       89 in task  10
  | Estimated number of non-zero basis functions for the Hamiltonian :       89 in task  11
  | Estimated number of non-zero basis functions for the Hamiltonian :       89 in task  12
  | Estimated number of non-zero basis functions for the Hamiltonian :       89 in task  13
  | Estimated number of non-zero basis functions for the Hamiltonian :       89 in task  14
  | Estimated number of non-zero basis functions for the Hamiltonian :       90 in task  15
  | Estimated number of non-zero basis functions for the Hamiltonian :       90 in task  16
  | Estimated number of non-zero basis functions for the Hamiltonian :       90 in task  17
  | Estimated number of non-zero basis functions for the Hamiltonian :       90 in task  18
  | Estimated number of non-zero basis functions for the Hamiltonian :       90 in task  19
  | Estimated number of non-zero basis functions for the Hamiltonian :       90 in task  20
  | Estimated number of non-zero basis functions for the Hamiltonian :       90 in task  21
  | Estimated number of non-zero basis functions for the Hamiltonian :       90 in task  22
  | Estimated number of non-zero basis functions for the Hamiltonian :       90 in task  23
  | Estimated number of non-zero basis functions for the Hamiltonian :       90 in task  24
  | Estimated number of non-zero basis functions for the Hamiltonian :       90 in task  25
  | Estimated number of non-zero basis functions for the Hamiltonian :       90 in task  26
  | Estimated number of non-zero basis functions for the Hamiltonian :       90 in task  27
  | Estimated number of non-zero basis functions for the Hamiltonian :       90 in task  28
  | Estimated number of non-zero basis functions for the Hamiltonian :       90 in task  29
  | Estimated number of non-zero basis functions for the Hamiltonian :       90 in task  30
  | Estimated number of non-zero basis functions for the Hamiltonian :       90 in task  31
  | Estimated number of non-zero basis functions for the Hamiltonian :       90 in task  32
  | Estimated number of non-zero basis functions for the Hamiltonian :       90 in task  33
  | Estimated number of non-zero basis functions for the Hamiltonian :       90 in task  34
  | Estimated number of non-zero basis functions for the Hamiltonian :       90 in task  35
  | Estimated number of non-zero basis functions for the Hamiltonian :       90 in task  36
  | Estimated number of non-zero basis functions for the Hamiltonian :       90 in task  37
  | Estimated number of non-zero basis functions for the Hamiltonian :       90 in task  38
  | Estimated number of non-zero basis functions for the Hamiltonian :       90 in task  39
  | Estimated number of non-zero basis functions for the Hamiltonian :       90 in task  40
  | Estimated number of non-zero basis functions for the Hamiltonian :       90 in task  41
  | Estimated number of non-zero basis functions for the Hamiltonian :       90 in task  42
  | Estimated number of non-zero basis functions for the Hamiltonian :       90 in task  43
  | Estimated number of non-zero basis functions for the Hamiltonian :       90 in task  44
  | Estimated number of non-zero basis functions for the Hamiltonian :       90 in task  45
  | Estimated number of non-zero basis functions for the Hamiltonian :       89 in task  46
  | Estimated number of non-zero basis functions for the Hamiltonian :       89 in task  47
  | Estimated number of non-zero radial functions for the Hamiltonian:       33 in task   0
  | Estimated number of non-zero radial functions for the Hamiltonian:       33 in task   1
  | Estimated number of non-zero radial functions for the Hamiltonian:       33 in task   2
  | Estimated number of non-zero radial functions for the Hamiltonian:       33 in task   3
  | Estimated number of non-zero radial functions for the Hamiltonian:       33 in task   4
  | Estimated number of non-zero radial functions for the Hamiltonian:       33 in task   5
  | Estimated number of non-zero radial functions for the Hamiltonian:       33 in task   6
  | Estimated number of non-zero radial functions for the Hamiltonian:       33 in task   7
  | Estimated number of non-zero radial functions for the Hamiltonian:       33 in task   8
  | Estimated number of non-zero radial functions for the Hamiltonian:       33 in task   9
  | Estimated number of non-zero radial functions for the Hamiltonian:       33 in task  10
  | Estimated number of non-zero radial functions for the Hamiltonian:       33 in task  11
  | Estimated number of non-zero radial functions for the Hamiltonian:       33 in task  12
  | Estimated number of non-zero radial functions for the Hamiltonian:       33 in task  13
  | Estimated number of non-zero radial functions for the Hamiltonian:       33 in task  14
  | Estimated number of non-zero radial functions for the Hamiltonian:       33 in task  15
  | Estimated number of non-zero radial functions for the Hamiltonian:       33 in task  16
  | Estimated number of non-zero radial functions for the Hamiltonian:       33 in task  17
  | Estimated number of non-zero radial functions for the Hamiltonian:       33 in task  18
  | Estimated number of non-zero radial functions for the Hamiltonian:       33 in task  19
  | Estimated number of non-zero radial functions for the Hamiltonian:       33 in task  20
  | Estimated number of non-zero radial functions for the Hamiltonian:       33 in task  21
  | Estimated number of non-zero radial functions for the Hamiltonian:       33 in task  22
  | Estimated number of non-zero radial functions for the Hamiltonian:       33 in task  23
  | Estimated number of non-zero radial functions for the Hamiltonian:       33 in task  24
  | Estimated number of non-zero radial functions for the Hamiltonian:       33 in task  25
  | Estimated number of non-zero radial functions for the Hamiltonian:       33 in task  26
  | Estimated number of non-zero radial functions for the Hamiltonian:       33 in task  27
  | Estimated number of non-zero radial functions for the Hamiltonian:       33 in task  28
  | Estimated number of non-zero radial functions for the Hamiltonian:       33 in task  29
  | Estimated number of non-zero radial functions for the Hamiltonian:       33 in task  30
  | Estimated number of non-zero radial functions for the Hamiltonian:       33 in task  31
  | Estimated number of non-zero radial functions for the Hamiltonian:       33 in task  32
  | Estimated number of non-zero radial functions for the Hamiltonian:       33 in task  33
  | Estimated number of non-zero radial functions for the Hamiltonian:       33 in task  34
  | Estimated number of non-zero radial functions for the Hamiltonian:       33 in task  35
  | Estimated number of non-zero radial functions for the Hamiltonian:       33 in task  36
  | Estimated number of non-zero radial functions for the Hamiltonian:       33 in task  37
  | Estimated number of non-zero radial functions for the Hamiltonian:       33 in task  38
  | Estimated number of non-zero radial functions for the Hamiltonian:       33 in task  39
  | Estimated number of non-zero radial functions for the Hamiltonian:       33 in task  40
  | Estimated number of non-zero radial functions for the Hamiltonian:       33 in task  41
  | Estimated number of non-zero radial functions for the Hamiltonian:       33 in task  42
  | Estimated number of non-zero radial functions for the Hamiltonian:       33 in task  43
  | Estimated number of non-zero radial functions for the Hamiltonian:       33 in task  44
  | Estimated number of non-zero radial functions for the Hamiltonian:       33 in task  45
  | Estimated number of non-zero radial functions for the Hamiltonian:       33 in task  46
  | Estimated number of non-zero radial functions for the Hamiltonian:       33 in task  47

  Initial 3D integrations: Overlap and Hamiltonian matrix.
  | Adapting angular integration grids if requested.
 
  Output of integration grids in suitable form for copy-paste into control.in:
 
  Species C                   :
      division   0.4488  110
      division   0.5876  194
      division   0.7025  302
      division   0.8392  434
      division   0.8835  590
      division   0.9110  974
      division   1.3935 1202
      division   1.4369  974
      division   1.4591  770
      division   1.6095  590
      division   2.1712  434
      division   3.2535  302
      division   3.7469  194
      outer_grid  110
 
  Species O                   :
      division   0.5163  110
      division   0.7025  194
      division   0.8094  302
      division   0.8436  434
      division   0.8790  590
      division   0.9345  770
      division   0.9635  974
      division   1.4516 1202
      division   1.4817  974
      division   1.5125  770
      division   1.5441  590
      division   1.6609  770
      division   1.7697  974
      division   2.2483 1202
      division   2.2884  974
      division   2.5065  770
      division   2.7981  590
      division   3.0423  434
      division   3.1800  302
      division   3.6484  194
      outer_grid  110
 
  Species H                   :
      division   0.4817  110
      division   0.6378  194
      division   0.7100  302
      division   0.7764  434
      division   0.7886  590
      division   0.8221  770
      division   0.8790  974
      division   1.3724 1202
      division   1.4369  974
      division   1.4442  770
      division   1.4516  590
      division   1.4666  770
      division   1.4741  590
      division   1.7233  770
      division   1.7417  974
      division   2.2749 1202
      division   2.4603  974
      division   2.7244  770
      division   2.9567  590
      division   3.1097  434
      division   3.6806  302
      division   4.2114  194
      outer_grid  110
 
  Partitioning the integration grid into batches with parallel hashing+maxmin method.
  | Number of batches:    13373
  | Maximal batch size:     200
  | Minimal batch size:       2
  | Average batch size:      92.700
  | Standard deviation of batch sizes:      23.688

  Integration load balanced across    48 MPI tasks.
  Work distribution over tasks is as follows:
  Task     0 has      25827 integration points.
  Task     1 has      25957 integration points.
  Task     2 has      25796 integration points.
  Task     3 has      25774 integration points.
  Task     4 has      25796 integration points.
  Task     5 has      25793 integration points.
  Task     6 has      25774 integration points.
  Task     7 has      25812 integration points.
  Task     8 has      25806 integration points.
  Task     9 has      25796 integration points.
  Task    10 has      25799 integration points.
  Task    11 has      25917 integration points.
  Task    12 has      25783 integration points.
  Task    13 has      25790 integration points.
  Task    14 has      25803 integration points.
  Task    15 has      25911 integration points.
  Task    16 has      25801 integration points.
  Task    17 has      25792 integration points.
  Task    18 has      25781 integration points.
  Task    19 has      25780 integration points.
  Task    20 has      25808 integration points.
  Task    21 has      25795 integration points.
  Task    22 has      25788 integration points.
  Task    23 has      25827 integration points.
  Task    24 has      25784 integration points.
  Task    25 has      25789 integration points.
  Task    26 has      25928 integration points.
  Task    27 has      25936 integration points.
  Task    28 has      25789 integration points.
  Task    29 has      25812 integration points.
  Task    30 has      25791 integration points.
  Task    31 has      25800 integration points.
  Task    32 has      25783 integration points.
  Task    33 has      25796 integration points.
  Task    34 has      25891 integration points.
  Task    35 has      25907 integration points.
  Task    36 has      25913 integration points.
  Task    37 has      25804 integration points.
  Task    38 has      25851 integration points.
  Task    39 has      25776 integration points.
  Task    40 has      25806 integration points.
  Task    41 has      25830 integration points.
  Task    42 has      25938 integration points.
  Task    43 has      25845 integration points.
  Task    44 has      25774 integration points.
  Task    45 has      25800 integration points.
  Task    46 has      25930 integration points.
  Task    47 has      25893 integration points.
  Initializing partition tables, free-atom densities, potentials, etc. across the integration grid (initialize_grid_storage).
  | Net number of integration points:  1239672
  | of which are non-zero points    :  1239468
  Obtaining max. number of non-zero basis functions in each batch (get_n_compute_maxes).
  | Maximal number of non-zero basis functions:       89 in task     0
  | Maximal number of non-zero basis functions:       89 in task     1
  | Maximal number of non-zero basis functions:       89 in task     2
  | Maximal number of non-zero basis functions:       89 in task     3
  | Maximal number of non-zero basis functions:       89 in task     4
  | Maximal number of non-zero basis functions:       89 in task     5
  | Maximal number of non-zero basis functions:       89 in task     6
  | Maximal number of non-zero basis functions:       89 in task     7
  | Maximal number of non-zero basis functions:       89 in task     8
  | Maximal number of non-zero basis functions:       89 in task     9
  | Maximal number of non-zero basis functions:       90 in task    10
  | Maximal number of non-zero basis functions:       89 in task    11
  | Maximal number of non-zero basis functions:       89 in task    12
  | Maximal number of non-zero basis functions:       89 in task    13
  | Maximal number of non-zero basis functions:       89 in task    14
  | Maximal number of non-zero basis functions:       89 in task    15
  | Maximal number of non-zero basis functions:       89 in task    16
  | Maximal number of non-zero basis functions:       89 in task    17
  | Maximal number of non-zero basis functions:       89 in task    18
  | Maximal number of non-zero basis functions:       89 in task    19
  | Maximal number of non-zero basis functions:       89 in task    20
  | Maximal number of non-zero basis functions:       89 in task    21
  | Maximal number of non-zero basis functions:       89 in task    22
  | Maximal number of non-zero basis functions:       89 in task    23
  | Maximal number of non-zero basis functions:       89 in task    24
  | Maximal number of non-zero basis functions:       89 in task    25
  | Maximal number of non-zero basis functions:       89 in task    26
  | Maximal number of non-zero basis functions:       89 in task    27
  | Maximal number of non-zero basis functions:       89 in task    28
  | Maximal number of non-zero basis functions:       89 in task    29
  | Maximal number of non-zero basis functions:       89 in task    30
  | Maximal number of non-zero basis functions:       89 in task    31
  | Maximal number of non-zero basis functions:       89 in task    32
  | Maximal number of non-zero basis functions:       89 in task    33
  | Maximal number of non-zero basis functions:       89 in task    34
  | Maximal number of non-zero basis functions:       89 in task    35
  | Maximal number of non-zero basis functions:       89 in task    36
  | Maximal number of non-zero basis functions:       89 in task    37
  | Maximal number of non-zero basis functions:       89 in task    38
  | Maximal number of non-zero basis functions:       89 in task    39
  | Maximal number of non-zero basis functions:       89 in task    40
  | Maximal number of non-zero basis functions:       89 in task    41
  | Maximal number of non-zero basis functions:       89 in task    42
  | Maximal number of non-zero basis functions:       89 in task    43
  | Maximal number of non-zero basis functions:       89 in task    44
  | Maximal number of non-zero basis functions:       89 in task    45
  | Maximal number of non-zero basis functions:       89 in task    46
  | Maximal number of non-zero basis functions:       89 in task    47

  Updating Kohn-Sham eigenvalues, eigenvectors, occupation numbers, and Fermi level.
  Solving generalized eigenproblem
  Updating Kohn-Sham eigenvalues and eigenfunctions.
  Transforming overlap matrix and checking for singularities.
  Overlap matrix is nonsingular:
  | Lowest eigenvalue:  0.799893E-03
  Solving real generalised eigenvalue problem by standard LAPACK (fast)
  Determining occupation numbers for Kohn-Sham eigenstates.
  | Chemical potential (Fermi level) in eV                 : -.65040210E+01
  | Error in electron count due to remaining E_F inaccuracy: 0.00000000E+00
  | Maximum occupation number of highest empty state:  0.00E+00

  Writing Kohn-Sham eigenvalues.

  State    Occupation    Eigenvalue [Ha]    Eigenvalue [eV]
      1       2.00000         -18.979704         -516.46402
      2       2.00000         -10.144707         -276.05153
      3       2.00000          -1.134185          -30.86275
      4       2.00000          -0.692971          -18.85671
      5       2.00000          -0.570095          -15.51309
      6       2.00000          -0.552952          -15.04658
      7       2.00000          -0.489324          -13.31518
      8       2.00000          -0.366380           -9.96970
      9       0.00000          -0.197606           -5.37714
     10       0.00000          -0.010863           -0.29560
     11       0.00000           0.041495            1.12912
     12       0.00000           0.044607            1.21382
     13       0.00000           0.148994            4.05433
     14       0.00000           0.150027            4.08245
     15       0.00000           0.196280            5.34104
     16       0.00000           0.295991            8.05431
     17       0.00000           0.308651            8.39882
     18       0.00000           0.322869            8.78571
     19       0.00000           0.328372            8.93546
     20       0.00000           0.403398           10.97701
     21       0.00000           0.422356           11.49290
     22       0.00000           0.501332           13.64193
     23       0.00000           0.609119           16.57498
     24       0.00000           0.638680           17.37936
     25       0.00000           0.713331           19.41072
     26       0.00000           0.739266           20.11646
     27       0.00000           0.836758           22.76934
     28       0.00000           0.878603           23.90799
     29       0.00000           0.903146           24.57586
     30       0.00000           0.980036           26.66814
     31       0.00000           1.090691           29.67921
     32       0.00000           1.223597           33.29576
     33       0.00000           1.230841           33.49290
     34       0.00000           1.257050           34.20606
     35       0.00000           1.274457           34.67973
     36       0.00000           1.360257           37.01447
     37       0.00000           1.447786           39.39627
     38       0.00000           1.503494           40.91214
     39       0.00000           1.708449           46.48927
     40       0.00000           1.811996           49.30691
     41       0.00000           1.836664           49.97818
     42       0.00000           1.969278           53.58677
     43       0.00000           2.291216           62.34715
     44       0.00000           2.317095           63.05136
     45       0.00000           2.433423           66.21681
     46       0.00000           2.472460           67.27905
     47       0.00000           2.549380           69.37216
     48       0.00000           2.592523           70.54614
     49       0.00000           2.602940           70.82961
     50       0.00000           2.624505           71.41641
     51       0.00000           2.675485           72.80365
     52       0.00000           2.734145           74.39987
     53       0.00000           2.755015           74.96777
     54       0.00000           2.772843           75.45288
     55       0.00000           3.026094           82.34422
     56       0.00000           3.150310           85.72428
     57       0.00000           3.171934           86.31271
     58       0.00000           3.238389           88.12105
     59       0.00000           3.240187           88.16998
     60       0.00000           3.272515           89.04966
     61       0.00000           3.544012           96.43746
     62       0.00000           3.586979           97.60667
     63       0.00000           3.645682           99.20405
     64       0.00000           3.689927          100.40803
     65       0.00000           3.693071          100.49358
     66       0.00000           3.786903          103.04688
     67       0.00000           3.985593          108.45350
     68       0.00000           4.038806          109.90151
     69       0.00000           4.298551          116.96952
     70       0.00000           4.328756          117.79144
     71       0.00000           4.367960          118.85824
     72       0.00000           4.496938          122.36792
     73       0.00000           4.661142          126.83614
     74       0.00000           4.914839          133.73959
     75       0.00000           4.936083          134.31764
     76       0.00000           4.957740          134.90696
     77       0.00000           4.981431          135.55164
     78       0.00000           5.149375          140.12162
     79       0.00000           5.407614          147.14867
     80       0.00000           5.526892          150.39437
     81       0.00000           5.808875          158.06752
     82       0.00000           6.033544          164.18108
     83       0.00000           6.033893          164.19059
     84       0.00000           6.210709          169.00199
     85       0.00000           6.461348          175.82223
     86       0.00000           6.534139          177.80297
     87       0.00000           6.714643          182.71472
     88       0.00000           6.732427          183.19865
     89       0.00000          23.000459          625.87434
     90       0.00000          42.983200         1169.63238

  Highest occupied state (VBM) at     -9.96969728 eV
  | Occupation number:      2.00000000

  Lowest unoccupied state (CBM) at    -5.37713709 eV
  | Occupation number:      0.00000000

  Overall HOMO-LUMO gap:      4.59256019 eV.
  Calculating total energy contributions from superposition of free atom densities.

  Total energy components:
  | Sum of eigenvalues            :         -65.86063597 Ha       -1792.15908880 eV
  | XC energy correction          :         -14.27574367 Ha        -388.46274996 eV
  | XC potential correction       :          18.34310259 Ha         499.14121738 eV
  | Free-atom electrostatic energy:         -52.69947777 Ha       -1434.02575260 eV
  | Hartree energy correction     :           0.00000000 Ha           0.00000000 eV
  | Entropy correction            :           0.00000000 Ha           0.00000000 eV
  | ---------------------------
  | Total energy                  :        -114.49275482 Ha       -3115.50637397 eV
  | Total energy, T -> 0          :        -114.49275482 Ha       -3115.50637397 eV  <-- do not rely on this value for anything but (periodic) metals
  | Electronic free energy        :        -114.49275482 Ha       -3115.50637397 eV

  Derived energy quantities:
  | Kinetic energy                :         113.34317505 Ha        3084.22471670 eV
  | Electrostatic energy          :        -213.56018621 Ha       -5811.26834072 eV
  | Energy correction for multipole
  | error in Hartree potential    :           0.00000000 Ha           0.00000000 eV
  | Sum of eigenvalues per atom                           :        -448.03977220 eV
  | Total energy (T->0) per atom                          :        -778.87659349 eV  <-- do not rely on this value for anything but (periodic) metals
  | Electronic free energy per atom                       :        -778.87659349 eV
  Initialize hartree_potential_storage
  Max. number of atoms included in rho_multipole:            4

  End scf initialization - timings             :  max(cpu_time)    wall_clock(cpu1)
  | Time for scf. initialization               :        2.128 s           2.127 s
  | Boundary condition initialization          :        0.000 s           0.000 s
  | Integration                                :        0.744 s           0.736 s
  | Solution of K.-S. eqns.                    :        0.008 s           0.007 s
  | Grid partitioning                          :        0.676 s           0.675 s
  | Preloading free-atom quantities on grid    :        0.516 s           0.514 s
  | Free-atom superposition energy             :        0.024 s           0.020 s
  | Total energy evaluation                    :        0.000 s           0.000 s
------------------------------------------------------------

------------------------------------------------------------
          Begin self-consistency iteration #    1

  Date     :  20170217, Time     :  122914.069
------------------------------------------------------------
  Evaluating new KS density using the density matrix
  Evaluating density matrix
  Time summed over all CPUs for getting density from density matrix: real work        5.637 s, elapsed        5.714 s
  Integration grid: deviation in total charge (<rho> - N_e) =   2.243646E-08
  Pulay mixing of updated and previous charge densities.

  Evaluating partitioned Hartree potential by multipole expansion.
  | Analytical far-field extrapolation by fixed multipoles:
  | Hartree multipole sum: apparent total charge =  -0.174753E-06
  Summing up the Hartree potential.
  Time summed over all CPUs for potential: real work        4.578 s, elapsed        4.597 s
  | RMS charge density error from multipole expansion :   0.480221E-03

  Integrating Hamiltonian matrix: batch-based integration.
  Time summed over all CPUs for integration: real work        4.853 s, elapsed        4.966 s

  Updating Kohn-Sham eigenvalues, eigenvectors, occupation numbers, and Fermi level.
  Solving generalized eigenproblem
  Updating Kohn-Sham eigenvalues and eigenfunctions.
  Solving real generalised eigenvalue problem by standard LAPACK (fast)
  Determining occupation numbers for Kohn-Sham eigenstates.
  | Chemical potential (Fermi level) in eV                 : -.47428553E+01
  | Error in electron count due to remaining E_F inaccuracy: 0.00000000E+00
  | Maximum occupation number of highest empty state:  0.00E+00

  Writing Kohn-Sham eigenvalues.

  State    Occupation    Eigenvalue [Ha]    Eigenvalue [eV]
      1       2.00000         -18.853134         -513.01987
      2       2.00000         -10.089899         -274.56011
      3       2.00000          -1.065161          -28.98452
      4       2.00000          -0.657765          -17.89871
      5       2.00000          -0.529616          -14.41158
      6       2.00000          -0.488599          -13.29546
      7       2.00000          -0.434080          -11.81193
      8       2.00000          -0.308988           -8.40800
      9       0.00000          -0.157982           -4.29890
     10       0.00000          -0.000811           -0.02206
     11       0.00000           0.057985            1.57784
     12       0.00000           0.058164            1.58273
     13       0.00000           0.157186            4.27724
     14       0.00000           0.159119            4.32984
     15       0.00000           0.212135            5.77250
     16       0.00000           0.326076            8.87299
     17       0.00000           0.327601            8.91446
     18       0.00000           0.339912            9.24948
     19       0.00000           0.356499            9.70084
     20       0.00000           0.430765           11.72171
     21       0.00000           0.438308           11.92697
     22       0.00000           0.526914           14.33807
     23       0.00000           0.635174           17.28397
     24       0.00000           0.657495           17.89136
     25       0.00000           0.732471           19.93154
     26       0.00000           0.753451           20.50246
     27       0.00000           0.867055           23.59377
     28       0.00000           0.898277           24.44335
     29       0.00000           0.917627           24.96991
     30       0.00000           1.006703           27.39379
     31       0.00000           1.113530           30.30070
     32       0.00000           1.244366           33.86092
     33       0.00000           1.246934           33.93080
     34       0.00000           1.282289           34.89287
     35       0.00000           1.292998           35.18427
     36       0.00000           1.388357           37.77912
     37       0.00000           1.468746           39.96662
     38       0.00000           1.544913           42.03921
     39       0.00000           1.752315           47.68292
     40       0.00000           1.851891           50.39251
     41       0.00000           1.881521           51.19879
     42       0.00000           2.015448           54.84314
     43       0.00000           2.316785           63.04294
     44       0.00000           2.373428           64.58426
     45       0.00000           2.460204           66.94555
     46       0.00000           2.490875           67.78015
     47       0.00000           2.591201           70.51018
     48       0.00000           2.624333           71.41175
     49       0.00000           2.646104           72.00415
     50       0.00000           2.667845           72.59575
     51       0.00000           2.718841           73.98342
     52       0.00000           2.762936           75.18331
     53       0.00000           2.799595           76.18086
     54       0.00000           2.804658           76.31862
     55       0.00000           3.060237           83.27328
     56       0.00000           3.181494           86.57285
     57       0.00000           3.190627           86.82137
     58       0.00000           3.262933           88.78893
     59       0.00000           3.274084           89.09236
     60       0.00000           3.295375           89.67171
     61       0.00000           3.562525           96.94125
     62       0.00000           3.606596           98.14047
     63       0.00000           3.669087           99.84094
     64       0.00000           3.709804          100.94889
     65       0.00000           3.721801          101.27535
     66       0.00000           3.805977          103.56590
     67       0.00000           4.007497          109.04955
     68       0.00000           4.083408          111.11519
     69       0.00000           4.322670          117.62584
     70       0.00000           4.356808          118.55479
     71       0.00000           4.398314          119.68422
     72       0.00000           4.524138          123.10807
     73       0.00000           4.691939          127.67416
     74       0.00000           4.945278          134.56787
     75       0.00000           4.994333          135.90271
     76       0.00000           5.009462          136.31439
     77       0.00000           5.017595          136.53572
     78       0.00000           5.184263          141.07098
     79       0.00000           5.465138          148.71397
     80       0.00000           5.583750          151.94158
     81       0.00000           5.876083          159.89634
     82       0.00000           6.104715          166.11776
     83       0.00000           6.114081          166.37262
     84       0.00000           6.287452          171.09027
     85       0.00000           6.534602          177.81556
     86       0.00000           6.608002          179.81288
     87       0.00000           6.792764          184.84051
     88       0.00000           6.792842          184.84264
     89       0.00000          23.051802          627.27145
     90       0.00000          43.102899         1172.88955

  Highest occupied state (VBM) at     -8.40800488 eV
  | Occupation number:      2.00000000

  Lowest unoccupied state (CBM) at    -4.29890347 eV
  | Occupation number:      0.00000000

  Overall HOMO-LUMO gap:      4.10910141 eV.

  Total energy components:
  | Sum of eigenvalues            :         -64.85448641 Ha       -1764.78036627 eV
  | XC energy correction          :         -14.38553109 Ha        -391.45021774 eV
  | XC potential correction       :          18.48627570 Ha         503.03715602 eV
  | Free-atom electrostatic energy:         -52.69947777 Ha       -1434.02575260 eV
  | Hartree energy correction     :          -0.99547793 Ha         -27.08833264 eV
  | Entropy correction            :           0.00000000 Ha           0.00000000 eV
  | ---------------------------
  | Total energy                  :        -114.44869750 Ha       -3114.30751322 eV
  | Total energy, T -> 0          :        -114.44869750 Ha       -3114.30751322 eV  <-- do not rely on this value for anything but (periodic) metals
  | Electronic free energy        :        -114.44869750 Ha       -3114.30751322 eV

  Derived energy quantities:
  | Kinetic energy                :         113.89813877 Ha        3099.32604791 eV
  | Electrostatic energy          :        -213.96130518 Ha       -5822.18334339 eV
  | Energy correction for multipole
  | error in Hartree potential    :          -0.00007282 Ha          -0.00198152 eV
  | Sum of eigenvalues per atom                           :        -441.19509157 eV
  | Total energy (T->0) per atom                          :        -778.57687830 eV  <-- do not rely on this value for anything but (periodic) metals
  | Electronic free energy per atom                       :        -778.57687830 eV

  Self-consistency convergence accuracy:
  | Change of charge density      :  0.3336E+00
  | Change of sum of eigenvalues  :  0.2738E+02 eV
  | Change of total energy        :  0.1199E+01 eV

  End self-consistency iteration #     1       :  max(cpu_time)    wall_clock(cpu1)
  | Time for this iteration                    :        0.340 s           0.340 s
  | Charge density update                      :        0.124 s           0.122 s
  | Density mixing                             :        0.004 s           0.002 s
  | Hartree multipole update                   :        0.012 s           0.011 s
  | Hartree multipole summation                :        0.100 s           0.098 s
  | Integration                                :        0.104 s           0.104 s
[...]
  |    H      1     2.278372 A      2.278372 A        7.383229E-17 a.u.
  |    H      2     2.278372 A      2.278372 A       -8.660525E-17 a.u.
  |    H      0     2.363483 A      2.363483 A       -3.704774E-17 a.u.
  |    H      1     2.512457 A      2.512457 A        4.766987E-17 a.u.
  |    H      3     2.574644 A      2.574644 A        2.521661E-16 a.u.
  |    H      2     3.452542 A      3.452542 A       -6.608164E-17 a.u.
  |    H      2     3.495008 A      3.495008 A        1.859377E-17 a.u.
  |    H      1     3.537997 A      3.537997 A       -2.260834E-17 a.u.
  |    H      0     3.581514 A      3.581514 A        1.421155E-16 a.u.
  |    H      1     4.355265 A      4.355265 A       -4.579438E-16 a.u.
  |    H      0     4.463063 A      4.463063 A        1.544563E-16 a.u.
  |    H      0     6.362109 A      6.362109 A       -1.817252E-16 a.u.
  |    H      0     6.362109 A      6.362109 A       -1.618062E-16 a.u.
  |    H      4     2.223342 A  1.991299E+02 A            0.600436 a.u.
  |    H      3     2.638369 A  9.788502E+02 A            0.931645 a.u.
  |    H      2     3.537997 A  1.365387E+04 A            1.366953 a.u.
  |    H      1     4.355265 A  1.817921E+06 A            0.939156 a.u.
  |    H      0     6.362109 A  3.919334E+12 A            0.589388 a.u.

  | Shrink_full_auxil_basis : there are       93  radial auxiliary wave functions
                            accepted and     184 rejected.
  | Shrink_full_auxil_basis : there are totally     489 partial auxiliary wave functions.
 
  | Number of product basis functions per thread :    11
  | Minimal requirement for computer memory :           0.018 Gbs
 
  Basis pair condensation :      4095  -->       4094
 
 ----------------------------------------------------
  Integrating the 3-basis-function Coulomb matrix ...
  | i_atom:            1
  | i_atom:            2
  | i_atom:            3
  | i_atom:            4
  Integrating the Coulomb interaction matrix for auxiliary basis functions (by atoms)

  SBT integration errors (all should be 'small'):
  large logFT aliasing -> increase N/lnrange
  large SBT aliasing -> decrease lnk0 & increase lnk0+lnrange
  large SBT ringing -> decrease lnr0 & increase lnr0+lnrange
  |            El't  L: logFT-al.   small-k   large-k   small-r   large-r
  Atomic logSBT for 2-center Coulomb matrix    :  max(cpu_time)    wall_clock(cpu1)
  | Multiplication with kernel                 :        0.008 s           0.001 s
  | Main matrix multiplication                 :        0.012 s           0.005 s
  | Analytic angular integration               :        0.008 s           0.001 s
  | Kernel construction                        :        0.008 s           0.002 s
  | Overall 2-center overlap time              :        0.020 s           0.013 s

  Difference of Coulomb matrix to its transposed:  2.9143E-16
  Task     0: Eigenvalues of the Coulomb matrix range from    3.9372E+00 to    1.2645E-07.
  Task     0: Using      484   eigenvalues out of rank      489   Coulomb matrix (auxiliary basis).
  Task     0: Still using eigenvalue     1.2501E-05 while cutting     9.5071E-06 in Coulomb matrix.
 
  Multiplying V^-0.5 x ovlp_3fn (1d-scalapack)

  End of correlation preparation               :  max(cpu_time)    wall_clock(cpu1)
  | Product basis setup: Total time            :       14.524 s          14.518 s
  | Product basis: | 3-center integrations     :       14.004 s          14.000 s
  | Product basis: | 2-center integrations     :        0.084 s           0.081 s
  | Product basis: | 2-center linear algebra   :        0.228 s           0.226 s
  | Product basis: | 3-center x 2-center       :        0.036 s           0.033 s

--------------------------------------------
          GW quasiparticle calculation starts ...

  The ovlp_3KS matrix takes another      0 MiB x     48 procs =       0.006 GiB.


  Initialising transformed Gauss-Legendre time and frequency grids
  Number of frequency points for self energy.....:200
  Number of frequency points....................:200
 
  Starts to calculate the exchange energy ...
 
  Integrating the xc potential matrix  for basis functions ...
 
 -------------------------------------------------
  Start to calculate the self energy ... 
  HOMO and first non-fully-occupied orbitals:    8    9
 
 | i_freq    1            0.000018
 | i_freq    2            0.000095
 | i_freq    3            0.000233
 | i_freq    4            0.000433
 | i_freq    5            0.000694
 | i_freq    6            0.001017
 | i_freq    7            0.001402
 | i_freq    8            0.001849
 | i_freq    9            0.002358
 | i_freq   10            0.002930
 | i_freq   11            0.003564
 | i_freq   12            0.004262
 | i_freq   13            0.005023
 | i_freq   14            0.005848
 | i_freq   15            0.006737
 | i_freq   16            0.007691
 | i_freq   17            0.008711
 | i_freq   18            0.009796
 | i_freq   19            0.010947
 | i_freq   20            0.012165
 | i_freq   21            0.013451
 | i_freq   22            0.014804
 | i_freq   23            0.016227
 | i_freq   24            0.017719
 | i_freq   25            0.019281
 | i_freq   26            0.020915
 | i_freq   27            0.022620
 | i_freq   28            0.024398
 | i_freq   29            0.026250
 | i_freq   30            0.028177
 | i_freq   31            0.030180
 | i_freq   32            0.032259
 | i_freq   33            0.034417
 | i_freq   34            0.036654
 | i_freq   35            0.038971
 | i_freq   36            0.041369
 | i_freq   37            0.043851
 | i_freq   38            0.046417
 | i_freq   39            0.049069
 | i_freq   40            0.051808
 | i_freq   41            0.054635
 | i_freq   42            0.057554
 | i_freq   43            0.060564
 | i_freq   44            0.063668
 | i_freq   45            0.066868
 | i_freq   46            0.070165
 | i_freq   47            0.073562
 | i_freq   48            0.077060
 | i_freq   49            0.080662
 | i_freq   50            0.084369
 | i_freq   51            0.088185
 | i_freq   52            0.092111
 | i_freq   53            0.096150
 | i_freq   54            0.100304
 | i_freq   55            0.104576
 | i_freq   56            0.108969
 | i_freq   57            0.113486
 | i_freq   58            0.118130
 | i_freq   59            0.122903
 | i_freq   60            0.127809
 | i_freq   61            0.132851
 | i_freq   62            0.138032
 | i_freq   63            0.143357
 | i_freq   64            0.148829
 | i_freq   65            0.154452
 | i_freq   66            0.160229
 | i_freq   67            0.166165
 | i_freq   68            0.172265
 | i_freq   69            0.178533
 | i_freq   70            0.184973
 | i_freq   71            0.191590
 | i_freq   72            0.198390
 | i_freq   73            0.205378
 | i_freq   74            0.212559
 | i_freq   75            0.219939
 | i_freq   76            0.227524
 | i_freq   77            0.235321
 | i_freq   78            0.243335
 | i_freq   79            0.251573
 | i_freq   80            0.260044
 | i_freq   81            0.268753
 | i_freq   82            0.277708
 | i_freq   83            0.286918
 | i_freq   84            0.296392
 | i_freq   85            0.306136
 | i_freq   86            0.316162
 | i_freq   87            0.326478
 | i_freq   88            0.337094
 | i_freq   89            0.348020
 | i_freq   90            0.359268
 | i_freq   91            0.370850
 | i_freq   92            0.382775
 | i_freq   93            0.395059
 | i_freq   94            0.407712
 | i_freq   95            0.420750
 | i_freq   96            0.434186
 | i_freq   97            0.448035
 | i_freq   98            0.462314
 | i_freq   99            0.477039
 | i_freq  100            0.492227
 | i_freq  101            0.507896
 | i_freq  102            0.524067
 | i_freq  103            0.540758
 | i_freq  104            0.557992
 | i_freq  105            0.575790
 | i_freq  106            0.594177
 | i_freq  107            0.613178
 | i_freq  108            0.632817
 | i_freq  109            0.653124
 | i_freq  110            0.674128
 | i_freq  111            0.695858
 | i_freq  112            0.718349
 | i_freq  113            0.741634
 | i_freq  114            0.765749
 | i_freq  115            0.790734
 | i_freq  116            0.816630
 | i_freq  117            0.843479
 | i_freq  118            0.871328
 | i_freq  119            0.900225
 | i_freq  120            0.930224
 | i_freq  121            0.961378
 | i_freq  122            0.993746
 | i_freq  123            1.027391
 | i_freq  124            1.062380
 | i_freq  125            1.098784
 | i_freq  126            1.136679
 | i_freq  127            1.176144
 | i_freq  128            1.217269
 | i_freq  129            1.260144
 | i_freq  130            1.304869
 | i_freq  131            1.351551
 | i_freq  132            1.400305
 | i_freq  133            1.451252
 | i_freq  134            1.504525
 | i_freq  135            1.560267
 | i_freq  136            1.618630
 | i_freq  137            1.679780
 | i_freq  138            1.743896
 | i_freq  139            1.811170
 | i_freq  140            1.881813
 | i_freq  141            1.956051
 | i_freq  142            2.034131
 | i_freq  143            2.116320
 | i_freq  144            2.202911
 | i_freq  145            2.294221
 | i_freq  146            2.390599
 | i_freq  147            2.492424
 | i_freq  148            2.600113
 | i_freq  149            2.714123
 | i_freq  150            2.834958
 | i_freq  151            2.963169
 | i_freq  152            3.099370
 | i_freq  153            3.244234
 | i_freq  154            3.398512
 | i_freq  155            3.563035
 | i_freq  156            3.738727
 | i_freq  157            3.926622
 | i_freq  158            4.127874
 | i_freq  159            4.343777
 | i_freq  160            4.575787
 | i_freq  161            4.825544
 | i_freq  162            5.094902
 | i_freq  163            5.385966
 | i_freq  164            5.701130
 | i_freq  165            6.043126
 | i_freq  166            6.415087
 | i_freq  167            6.820615
 | i_freq  168            7.263872
 | i_freq  169            7.749683
 | i_freq  170            8.283674
 | i_freq  171            8.872428
 | i_freq  172            9.523696
 | i_freq  173           10.246646
 | i_freq  174           11.052196
 | i_freq  175           11.953420
 | i_freq  176           12.966087
 | i_freq  177           14.109356
 | i_freq  178           15.406685
 | i_freq  179           16.887044
 | i_freq  180           18.586551
 | i_freq  181           20.550690
 | i_freq  182           22.837391
 | i_freq  183           25.521346
 | i_freq  184           28.700187
 | i_freq  185           32.503494
 | i_freq  186           37.106206
 | i_freq  187           42.749103
 | i_freq  188           49.770942
 | i_freq  189           58.660500
 | i_freq  190           70.143974
 | i_freq  191           85.338099
 | i_freq  192          106.032192
 | i_freq  193          135.239901
 | i_freq  194          178.361304
 | i_freq  195          245.869090
 | i_freq  196          360.317302
 | i_freq  197          577.921171
 | i_freq  198         1073.293071
 | i_freq  199         2638.240217
 | i_freq  200        13902.153495
 --------------------------------------------
 
  Analytical continuation starts...
 
  Quasi particle energy calculation starts...
 
------------------------------------------------------------------------------------------------------
               GW quasi-particle energy levels
 
               e_qp = e_gs + e_x^ex - e_xc^gs + e_c^nloc
 
  state     occ_num        e_gs        e_x^ex        e_xc^gs        e_c^nloc        e_qp
------------------------------------------------------------------------------------------------------
------------------------------------------------------------------------------------------------------
       1    2.0000     -510.7774     -132.7333      -83.8069        9.8060     -549.8979
       2    2.0000     -271.5964      -97.0230      -61.5965        9.8054     -297.2176
       3    2.0000      -26.5801      -33.6868      -21.9935        6.7051      -31.5683
       4    2.0000      -15.6476      -23.7614      -16.2798        3.3505      -19.7788
       5    2.0000      -12.1056      -21.9339      -15.5935        2.9131      -15.5329
       6    2.0000      -10.9291      -26.7584      -19.7911        2.8772      -15.0191
       7    2.0000      -10.0378      -21.8532      -17.2333        0.7529      -13.9047
       8    2.0000       -6.2020      -24.1947      -18.3436        1.8877      -10.1655
       9    0.0000       -2.6060       -8.7929      -14.9689       -2.2601        1.3099
      10    0.0000        0.8977       -2.8109       -6.7499       -1.1940        3.6427
      11    0.0000        2.4340       -2.2746       -5.9409       -0.9125        5.1879
      12    0.0000        2.5421       -3.0669       -7.0127       -1.1637        5.3242
      13    0.0000        4.9961       -1.7206       -5.5016       -1.0798        7.6972
      14    0.0000        5.0413       -1.8479       -6.1626       -1.5764        7.7796
      15    0.0000        6.6148       -2.0409       -5.7030       -0.8230        9.4539
      16    0.0000        9.9482       -2.7303       -7.4137       -1.6678       12.9639
      17    0.0000       10.1687       -3.8615       -9.3508       -2.3073       13.3507
      18    0.0000       10.7104       -4.4741      -10.6042       -2.6170       14.2235
------------------------------------------------------------------------------------------------------
 
   DFT/Hartree-Fock HOMO level (eV):    -6.2020   -6.2020
 
   Quasiparticle HOMO level (eV):      -10.1655  -10.1655
 
------------------------------------------------------------------------------------------------------
 
          | Total time for transforming the 3-center integrals :        0.004 s
          | Total time for calculating the exchange-correlation
                                  energy matrix elements   :        0.120 s
          | Total time for calculating polarisability      :        1.656 s
          | Total time for calculating self energy 
                        on imaginary frequency axis        :       50.988 s
          | Total time for calculating the quasiparticle 
                        energies                           :        0.000 s

------------------------------------------------------------------------------
  Final output of selected total energy values:

  The following output summarizes some interesting total energy values
  at the end of a run (AFTER all relaxation, molecular dynamics, etc.).

  | Total energy of the DFT / Hartree-Fock s.c.f. calculation      :          -3113.529085421 eV
  | Final zero-broadening corrected energy (caution - metals only) :          -3113.529085421 eV
  | For reference only, the value of 1 Hartree used in FHI-aims is :             27.211384500 eV

  Before relying on these values, please be sure to understand exactly which
  total energy value is referred to by a given number. Different objects may
  all carry the same name 'total energy'. Definitions:

  Total energy of the DFT / Hartree-Fock s.c.f. calculation:
  | Note that this energy does not include ANY quantities calculated after the
  | s.c.f. cycle, in particular not ANY RPA, MP2, etc. many-body perturbation terms.

  Final zero-broadening corrected energy:
  | For metallic systems only, a broadening of the occupation numbers at the Fermi
  | level can be extrapolated back to zero broadening by an electron-gas inspired
  | formula. For all systems that are not real metals, this value can be
  | meaningless and should be avoided.

------------------------------------------------------------------------------
  Methods described in the following list of references were used in this FHI-aims run.
  If you publish the results, please make sure to cite these reference if they apply.
  FHI-aims is an academic code, and for our developers (often, Ph.D. students
  and postdocs), scientific credit in the community is essential.
  Thank you for helping us!

  For any use of FHI-aims, please cite:

    Volker Blum, Ralf Gehrke, Felix Hanke, Paula Havu, Ville Havu,
    Xinguo Ren, Karsten Reuter, and Matthias Scheffler
    'Ab initio molecular simulations with numeric atom-centered orbitals'
    Computer Physics Communications 180, 2175-2196 (2009)
    http://dx.doi.org/10.1016/j.cpc.2009.06.022


  For Hartree-Fock, hybrid functionals, or many-body perturbation theory used in your run, please cite:

    Xinguo Ren, Patrick Rinke, Volker Blum, Juergen Wieferink, Alex Tkatchenko,
    Andrea Sanfilippo, Karsten Reuter, and Matthias Scheffler,
    'Resolution-of-identity approach to Hartree-Fock, hybrid density functionals,
    RPA, MP2, and GW with numeric atom-centered orbital basis functions'
    New Journal of Physics 14, 053020 (2012).
    http://dx.doi.org/10.1088/1367-2630/14/5/053020


  For the real-space grid partitioning and parallelization used in this calculation, please cite:

    Ville Havu, Volker Blum, Paula Havu, and Matthias Scheffler,
    'Efficient O(N) integration for all-electron electronic structure calculation'
    'using numerically tabulated basis functions'
    Journal of Computational Physics 228, 8367-8379 (2009).
    http://dx.doi.org/10.1016/j.jcp.2009.08.008

  Of course, there are many other important community references, e.g., those cited in the
  above references. Our list is limited to references that describe implementations in the
  FHI-aims code. The reason is purely practical (length of this list) - please credit others as well.

------------------------------------------------------------
          Leaving FHI-aims.
          Date     :  20170217, Time     :  123026.345

          Computational steps:
          | Number of self-consistency cycles          :           14

          Detailed time accounting                     :  max(cpu_time)    wall_clock(cpu1)
          | Total time                                 :       74.724 s          74.751 s
          | Preparation time                           :        0.300 s           0.299 s
          | Grid partitioning                          :        0.676 s           0.675 s
          | Preloading free-atom quantities on grid    :        0.516 s           0.514 s
          | Free-atom superposition energy             :        0.024 s           0.020 s
          | Total time for integrations                :        2.248 s           2.212 s
          | Product basis setup: Total time            :        0.000 s           0.000 s
          | Product basis: | 3-center integrations     :       14.004 s          14.000 s
          | Product basis: | 2-center integrations     :        0.084 s           0.081 s
          | Product basis: | 2-center linear algebra   :        0.228 s           0.226 s
          | Product basis: | 3-center x 2-center       :        0.036 s           0.033 s
          | Transforming ovlp_3fn to ovlp_3KS          :        0.004 s           0.001 s
          | Total time for evaluating scr. Coulomb matr:        0.000 s           0.000 s
          | Total time for GW self-energy              :       52.656 s          52.635 s
          | Total time for solution of K.-S. equations :        0.064 s           0.029 s
          | Total time for density update              :        1.784 s           1.741 s
          | Total time for mixing                      :        0.160 s           0.126 s
          | Total time for Hartree multipole update    :        0.168 s           0.154 s
          | Total time for Hartree multipole sum       :        1.400 s           1.378 s
          | Total time for total energy evaluation     :        0.024 s           0.002 s

          Have a nice day.
------------------------------------------------------------
real 80.36
user 0.10
sys 0.23
