  MPI-parallelism will be employed.
------------------------------------------------------------
          Invoking FHI-aims ...
          Version 151211
          Git rev. (modified): d01ffe6 [mbddev] implement print out of MBD bands
          Compiled on 2015/12/11 at 14:59:51 on host theobook27.

          When using FHI-aims, please cite the following reference:

          Volker Blum, Ralf Gehrke, Felix Hanke, Paula Havu,
          Ville Havu, Xinguo Ren, Karsten Reuter, and Matthias Scheffler,
          'Ab Initio Molecular Simulations with Numeric Atom-Centered Orbitals: FHI-aims',
          Computer Physics Communications 180, 2175-2196 (2009)

          For any questions about FHI-aims, please visit the aimsclub website
          with its forums and wiki. Contributions to both the forums and the
          wiki are warmly encouraged - they are for you, and everyone is welcome there.

------------------------------------------------------------

  Date     :  20160201, Time     :  212034.764
  Time zero on CPU 1             :   0.300000000000000E-01  s.
  Internal wall clock time zero  :           223593634.764  s.

  Using        2 parallel tasks.
  Task        0 on host theobook27 reporting.
  Task        1 on host theobook27 reporting.

  Performing system and environment tests:
  | Environment variable OMP_NUM_THREADS correctly set to 1.
  | Stacksize not measured: no C compiler
  | Checking for scalapack...
  | Testing pdtran()...
  | All pdtran() tests passed.

  Obtaining array dimensions for all initial allocations:
  
  -----------------------------------------------------------------------
  Parsing control.in (first pass over file, find array dimensions only).
  The contents of control.in will be repeated verbatim below
  unless switched off by setting 'verbatim_writeout .false.' .
  in the first line of control.in .
  -----------------------------------------------------------------------
  
    verbatim_writeout .false.
  
  -----------------------------------------------------------------------
  Completed first pass over input file control.in .
  -----------------------------------------------------------------------
  
  
  -----------------------------------------------------------------------
  Parsing geometry.in (first pass over file, find array dimensions only).
  The contents of geometry.in will be repeated verbatim below
  unless switched off by setting 'verbatim_writeout .false.' .
  in the first line of geometry.in .
  -----------------------------------------------------------------------
  
  verbatim_writeout .false.
  
  -----------------------------------------------------------------------
  Completed first pass over input file geometry.in .
  -----------------------------------------------------------------------
  

  Basic array size parameters:
  | Number of species                 :        2
  | Number of atoms                   :        3
  | Max. basis fn. angular momentum   :        2
  | Max. atomic/ionic basis occupied n:        2
  | Max. number of basis fn. types    :        2
  | Max. radial fns per species/type  :        3
  | Max. logarithmic grid size        :     1301
  | Max. radial integration grid size :       36
  | Max. angular integration grid size:      302
  | Max. angular grid division number :        8
  | Radial grid for Hartree potential :     1301
  | Number of spin channels           :        1

------------------------------------------------------------
          Reading file control.in.
------------------------------------------------------------
  XC: Using PBE gradient-corrected functionals.
  Charge =   0.000000E+00: Neutral system requested explicitly.
  Spin treatment: No spin polarisation.
  Non-relativistic treatment of kinetic energy.
  Occupation type: Gaussian broadening, width =   0.100000E-01 eV.
  Convergence accuracy of self-consistent charge density:  0.1000E-04
  Convergence accuracy of sum of eigenvalues:  0.1000E-02
  Convergence accuracy of total energy:  0.1000E-05
  Convergence accuracy of forces:  0.1000E-02
  Running Born-Oppenheimer  molecular dynamics in NVT ensemble with  Nose-Hoover thermostat
   | simulation time =       0.005000 ps
   | at temperature  =     300.000000 K
   | thermostat effective mass =     900.000000
  Molecular dynamics time step =       0.001000 ps
  Initializing MD run with Maxwell-Boltzmann momentum distribution at T =     300.000000 K
  Thermostat units for molecular dynamics: cm^-1
  Requested output level: MD_light            
 
  Reading configuration options for species H                   .
  | Found nuclear charge :   1.0000
  | Found atomic mass :    1.00794000000000      amu
  | Found l_max for Hartree potential  :   4
  | Found cutoff potl. onset [A], width [A], scale factor :    3.50000    1.50000    1.00000
  | Threshold for basis-dependent cutoff potential is   0.100000E-03
  | Found data for basic radial integration grid :    24 points, outermost radius =    5.000 A
  | Found multiplier for basic radial grid :   1
  | Found angular grid specification: user-specified.
  | Specified grid contains     5 separate shells.
  | Check grid settings after all constraints further below.
  | Found free-atom valence shell :  1 s   1.000
  | No ionic wave fns used. Skipping ion_occ.
  | Found hydrogenic basis function :  2 s   2.100
  | Found hydrogenic basis function :  2 p   3.500
  Species H                   : Missing cutoff potential type.
  Defaulting to exp(1/x)/(1-x)^2 type cutoff potential.
  Species H : No 'logarithmic' tag. Using default grid for free atom:
  | Default logarithmic grid data [bohr] : 0.1000E-03 0.1000E+03 0.1012E+01
  Species H : On-site basis accuracy parameter (for Gram-Schmidt orthonormalisation) not specified.
  Using default value basis_acc =  0.1000000E-03.
  Species H                   : Using default innermost maximum threshold i_radial=  2 for radial functions.
  Species H                   : Default cutoff onset for free atom density etc. : 0.35000000E+01 AA.
  Species H                   : Basic radial grid will be enhanced according to radial_multiplier =   1, to contain    24 grid points.
 
  Reading configuration options for species O                   .
  | Found nuclear charge :   8.0000
  | Found atomic mass :    15.9994000000000      amu
  | Found l_max for Hartree potential  :   4
  | Found cutoff potl. onset [A], width [A], scale factor :    3.50000    1.50000    1.00000
  | Threshold for basis-dependent cutoff potential is   0.100000E-03
  | Found data for basic radial integration grid :    36 points, outermost radius =    5.000 A
  | Found multiplier for basic radial grid :   1
  | Found angular grid specification: user-specified.
  | Specified grid contains     5 separate shells.
  | Check grid settings after all constraints further below.
  | Found free-atom valence shell :  2 s   2.000
  | Found free-atom valence shell :  2 p   4.000
  | No ionic wave fns used. Skipping ion_occ.
  | No ionic wave fns used. Skipping ion_occ.
  | Found hydrogenic basis function :  2 p   1.800
  | Found hydrogenic basis function :  3 d   7.600
  | Found hydrogenic basis function :  3 s   6.400
  Species O                   : Missing cutoff potential type.
  Defaulting to exp(1/x)/(1-x)^2 type cutoff potential.
  Species O : No 'logarithmic' tag. Using default grid for free atom:
  | Default logarithmic grid data [bohr] : 0.1000E-03 0.1000E+03 0.1012E+01
  Species O : On-site basis accuracy parameter (for Gram-Schmidt orthonormalisation) not specified.
  Using default value basis_acc =  0.1000000E-03.
  Species O                   : Using default innermost maximum threshold i_radial=  2 for radial functions.
  Species O                   : Default cutoff onset for free atom density etc. : 0.35000000E+01 AA.
  Species O                   : Basic radial grid will be enhanced according to radial_multiplier =   1, to contain    36 grid points.
 
  Finished reading input file 'control.in'. Consistency checks are next.
 
  Target number of points in a grid batch is not set. Defaulting to  100
  Method for grid partitioning is not set. Defaulting to parallel hash+maxmin partitioning.
  Batch size limit is not set. Defaulting to    200
  By default, will store active basis functions for each batch.
  If in need of memory, prune_basis_once .false. can be used to disable this option.
  communication_type for Hartree potential was not specified.
  Defaulting to calc_hartree .
  Defaulting to Pulay charge density mixer.
  Pulay mixer: Number of relevant iterations not set.
  Defaulting to    8 iterations.
  Pulay mixer: Number of initial linear mixing iterations not set.
  Defaulting to    0 iterations.
  Work space size for distributed Hartree potential not set.
  Defaulting to   0.200000E+03 MB.
  Mixing parameter for charge density mixing has not been set.
  Using default: charge_mix_param =     0.2000.
  Algorithm-dependent basis array size parameters:
  | n_max_pulay                         :        8
  Maximum number of self-consistency iterations not provided.
  Presetting  1000 iterations.
  Geometry relaxation not requested: no relaxation will be performed.
  Handling of forces: Unphysical translation and rotation will be removed from forces.
  Changed MD thermostat mass units, Q =   0.2789E+0000 amu*bohr^2
  No accuracy limit for integral partition fn. given. Defaulting to  0.1000E-14.
  No threshold value for u(r) in integrations given. Defaulting to  0.1000E-05.
  No accuracy for occupation numbers given. Defaulting to  0.1000E-07.
  No threshold value for occupation numbers given. Defaulting to  0.0000E+00.
  No accuracy for fermi level given. Defaulting to  0.1000E-19.
  Maximum # of iterations to find E_F not set. Defaulting to  200.
  Preferred method for the eigenvalue solver ('KS_method') not specified in 'control.in'.
  Calling blacs routine to test compilation state
  Since scalapack support is enabled, defaulting to 'elpa'.
  Will not use alltoall communication since running on < 1024 CPUs.
  Threshold for basis singularities not set.
  Default threshold for basis singularities:  0.1000E-04
  partition_type (choice of integration weights) for integrals was not specified.
  | Using a version of the partition function of Stratmann and coworkers ('stratmann_smoother').
  | At each grid point, the set of atoms used to build the partition table is smoothly restricted to
  | only those atoms whose free-atom density would be non-zero at that grid point.
  Partitioning for Hartree potential was not defined. Using partition_type for integrals.
  | Adjusted default value of keyword multip_moments_threshold to:       0.10000000E-11
  | This value may affect high angular momentum components of the Hartree potential in periodic systems.
  No q(lm)/r^(l+1) cutoff set for long-range Hartree potential.
  | Using default value of  0.100000E-09 .
  | Verify using the multipole_threshold keyword.
  Defaulting to new monopole extrapolation.
  Density update method: automatic selection selected.
------------------------------------------------------------


------------------------------------------------------------
          Reading geometry description geometry.in.
------------------------------------------------------------
  Input structure read successfully.
  The structure contains        3 atoms,  and a total of         10.000 electrons.

  Input geometry:
  | No unit cell requested.
  | Atomic structure:
  |       Atom                x [A]            y [A]            z [A]
  |    1: Species H              0.800000         0.600000         0.000000
  |    2: Species H             -0.800000         0.600000         0.000000
  |    3: Species O              0.000000         0.000000         0.000000
  |

  | The smallest distance between any two atoms is         1.00000000 AA.
  |
  | The first atom of this pair is atom number                      1 .
  | The second atom of this pair is atom number                     3 .

  Number of empty states per atom not set in control.in - providing a guess from actual geometry.
  | Total number of empty states used during s.c.f. cycle:        6
  If you use a very high smearing, use empty_states (per atom!) in control.in to increase this value.

  Structure-dependent array size parameters: 
  | Maximum number of distinct radial functions  :        9
  | Maximum number of basis functions            :       24
  | Number of Kohn-Sham states (occupied + empty):       11
------------------------------------------------------------

------------------------------------------------------------
          Preparing all fixed parts of the calculation.
------------------------------------------------------------
  Determining machine precision:
    2.225073858507201E-308
  Setting up grids for atomic and cluster calculations.

  Creating wave function, potential, and density for free atoms.

  Species: H

  List of occupied orbitals and eigenvalues:
    n    l              occ      energy [Ha]    energy [eV]
    1    0           1.0000        -0.237589        -6.4651


  Species: O

  List of occupied orbitals and eigenvalues:
    n    l              occ      energy [Ha]    energy [eV]
    1    0           2.0000       -18.898188      -514.2459
    2    0           2.0000        -0.878505       -23.9053
    2    1           4.0000        -0.331779        -9.0282

  Creating fixed part of basis set: Ionic, confined, hydrogenic.
 
  H                    hydrogenic:
 
  List of hydrogenic basis orbitals: 
    n    l      effective z      eigenvalue [eV]  inner max. [A]     outer max. [A]     outer radius [A]   
    2    0         2.100000       -14.9728           0.193243           1.317208           4.583499
    2    1         3.500000       -41.6669           0.602369           0.602369           3.723403
 
 
  O                    hydrogenic:
 
  List of hydrogenic basis orbitals: 
    n    l      effective z      eigenvalue [eV]  inner max. [A]     outer max. [A]     outer radius [A]   
    2    1         1.800000       -10.9749           1.164242           1.164242           4.578029
    3    2         7.600000       -87.3180           0.624125           0.624125           3.251020
    3    0         6.400000       -61.9207           0.061167           1.081902           4.001998
 

  Adding cutoff potential to free-atom effective potential.
  Creating atomic-like basis functions for current effective potential.

  Species H                   :

  List of atomic basis orbitals and eigenvalues:
    n    l      energy [Ha]    energy [eV]    outer radius [A]
    1    0        -0.237589        -6.4651       4.527807


  Species O                   :

  List of atomic basis orbitals and eigenvalues:
    n    l      energy [Ha]    energy [eV]    outer radius [A]
    1    0       -18.898188      -514.2459       1.415765
    2    0        -0.878505       -23.9053       4.413171
    2    1        -0.331779        -9.0282       4.522403

  Assembling full basis from fixed parts.
  | Species H :   atomic orbital   1 s accepted.
  | Species H :    hydro orbital   2 s accepted.
  | Species H :    hydro orbital   2 p accepted.
  | Species O :   atomic orbital   1 s accepted.
  | Species O :    hydro orbital   3 s accepted.
  | Species O :   atomic orbital   2 s accepted.
  | Species O :   atomic orbital   2 p accepted.
  | Species O :    hydro orbital   2 p accepted.
  | Species O :    hydro orbital   3 d accepted.
 
  Basis size parameters after reduction:
  | Total number of radial functions:        9
  | Total number of basis functions :       24
 
  Testing on-site integration grid accuracy.
  |  Species  Function  <phi|h_atom|phi> (log., in eV)  <phi|h_atom|phi> (rad., in eV)
           1        1                 -6.4663192853                 -6.4651273558
           1        2                 13.7111246313                 13.7170609718
           1        3                 25.2673269279                 25.2674696378
           2        4               -514.2458688638               -514.2457643834
           2        5                 15.1795651126                 15.1795290741
           2        6                -21.5359799773                -21.5360846185
           2        7                 -9.0283069236                 -9.0284644067
           2        8                  8.3027758563                  8.2834874195
           2        9                 45.8339351984                 45.8338762260

  Preparing densities etc. for the partition functions (integrals / Hartree potential).

  Preparations completed.
  max(cpu_time)          :      0.150 s.
  Wall clock time (cpu1) :      0.152 s.
------------------------------------------------------------

------------------------------------------------------------
          Begin self-consistency loop: Initialization.

          Date     :  20160201, Time     :  212034.953
------------------------------------------------------------

  Initializing index lists of integration centers etc. from given atomic structure:
  | Number of centers in hartree potential         :         3
  | Number of centers in hartree multipole         :         3
  | Number of centers in electron density summation:         3
  | Number of centers in basis integrals           :         3
  | Number of centers in integrals                 :         3
  | Number of centers in hamiltonian               :         3
  Using modified Scalapack Eigenvalue solver (ELPA)
  * Using 2 tasks for Scalapack Eigenvalue solver.
  Detailed listing of tasks and assigned k-points:
  (for non-periodic systems, the "k-point" denotes an internal label only)
   Task     0 k-point     1 on theobook27
   Task     1 k-point     1 on theobook27
  Tasks:     2 split into      2 X      1 BLACS grid
  Calculating blocksize based on n_basis =           24 max_nprow =            2 max_npcol =            1
  Scalapack blocksize set to:            8
  Required Scalapack workspace - INTEGER:            1 REAL:             1
  Partitioning the integration grid into batches with parallel hashing+maxmin method.
  | Number of batches:      256
  | Maximal batch size:      72
  | Minimal batch size:      53
  | Average batch size:      62.203
  | Standard deviation of batch sizes:       5.475

  Integration load balanced across     2 MPI tasks.
  Work distribution over tasks is as follows:
  Task     0 has       7995 integration points.
  Task     1 has       7929 integration points.
  Initializing partition tables, free-atom densities, potentials, etc. across the integration grid (initialize_grid_storage).
  | initialize_grid_storage: Actual outermost partition radius vs. multipole_radius_free
  | (-- VB: in principle, multipole_radius_free should be larger, hence this output)
  | Species        1: Confinement radius =              4.999999999999999 AA, multipole_radius_free =              5.054417573612229 AA.
  | Species        1: outer_partition_radius set to              5.054417573612229 AA .
  | Species        2: Confinement radius =              4.999999999999999 AA, multipole_radius_free =              5.048384829883283 AA.
  | Species        2: outer_partition_radius set to              5.048384829883283 AA .
  | Original list of interatomic distances with           3 x          3 entries is created.
  | Net number of integration points:    15924
  | of which are non-zero points    :    14582
  Obtaining max. number of non-zero basis functions in each batch (get_n_compute_maxes).
  | Maximal number of non-zero basis functions:       24 in task     0
  | Maximal number of non-zero basis functions:       24 in task     1
  Selecting the method for density update.
  Loop over occupied states selected for charge density update.
  Integrating Hamiltonian matrix: batch-based integration.
  Time summed over all CPUs for integration: real work        0.056 s, elapsed        0.057 s
  Integrating overlap matrix.
  Time summed over all CPUs for integration: real work        0.019 s, elapsed        0.019 s
  Deallocating overlap matrix.

  Updating Kohn-Sham eigenvalues, eigenvectors, occupation numbers, and Fermi level.
  Solving generalized eigenproblem
  Solving real symmetric generalised eigenvalue problem by standard ScaLAPACK.
  Transforming overlap matrix with ScaLAPACK and checking for singularities.
  : Overlap matrix is nonsingular, using Cholesky decomposition
  | Lowest eigenvalue:  0.180463E-01
  Factoring overlap matrix with Cholesky decomposition
  Using Cholesky factor for transformation
  Using 1-stage real ELPA solver
  Determining occupation numbers for Kohn-Sham eigenstates.
  | Chemical potential (Fermi level) in eV                 : -.49461059E+01
  | Error in electron count due to remaining E_F inaccuracy: 0.00000000E+00
  | Maximum occupation number of highest empty state:  0.00E+00

  Writing Kohn-Sham eigenvalues.

  State    Occupation    Eigenvalue [Ha]    Eigenvalue [eV]
      1       2.00000         -18.992320         -516.80732
      2       2.00000          -1.073410          -29.20897
      3       2.00000          -0.609918          -16.59671
      4       2.00000          -0.495762          -13.49036
      5       2.00000          -0.426834          -11.61475
      6       0.00000          -0.055514           -1.51060
      7       0.00000           0.022737            0.61871
      8       0.00000           0.220676            6.00491
      9       0.00000           0.252055            6.85877
     10       0.00000           0.312383            8.50037
     11       0.00000           0.487865           13.27549

  Highest occupied state (VBM) at    -11.61475463 eV
  | Occupation number:      2.00000000

  Lowest unoccupied state (CBM) at    -1.51060044 eV
  | Occupation number:      0.00000000

  Overall HOMO-LUMO gap:     10.10415418 eV.
  Calculating total energy contributions from superposition of free atom densities.

  Total energy components:
  | Sum of eigenvalues            :         -43.19648802 Ha       -1175.43624455 eV
  | XC energy correction          :          -9.00018802 Ha        -244.90757682 eV
  | XC potential correction       :          11.57163128 Ha         314.88010801 eV
  | Free-atom electrostatic energy:         -35.82681687 Ha        -974.89728927 eV
  | Hartree energy correction     :           0.00000000 Ha           0.00000000 eV
  | Entropy correction            :           0.00000000 Ha           0.00000000 eV
  | ---------------------------
  | Total energy                  :         -76.45186163 Ha       -2080.36100263 eV
  | Total energy, T -> 0          :         -76.45186163 Ha       -2080.36100263 eV  <-- do not rely on this value for anything but (periodic) metals
  | Electronic free energy        :         -76.45186163 Ha       -2080.36100263 eV

  Derived energy quantities:
  | Kinetic energy                :          75.51342143 Ha        2054.82474557 eV
  | Electrostatic energy          :        -142.96509505 Ha       -3890.27817139 eV
  | Energy correction for multipole
  | error in Hartree potential    :           0.00000000 Ha           0.00000000 eV
  | Sum of eigenvalues per atom                           :        -391.81208152 eV
  | Total energy (T->0) per atom                          :        -693.45366754 eV  <-- do not rely on this value for anything but (periodic) metals
  | Electronic free energy per atom                       :        -693.45366754 eV
  Initialize hartree_potential_storage
  Max. number of atoms included in rho_multipole:            3

  End scf initialization - timings             :  max(cpu_time)    wall_clock(cpu1)
  | Time for scf. initialization               :        0.080 s           0.087 s
  | Boundary condition initialization          :        0.000 s           0.007 s
  | Integration                                :        0.040 s           0.038 s
  | Solution of K.-S. eqns.                    :        0.000 s           0.002 s
  | Grid partitioning                          :        0.020 s           0.014 s
  | Preloading free-atom quantities on grid    :        0.000 s           0.004 s
  | Free-atom superposition energy             :        0.010 s           0.010 s
  | Total energy evaluation                    :        0.010 s           0.000 s
------------------------------------------------------------
Convergence:    q app. |  density  | eigen (eV) | Etot (eV) | forces (eV/A) |       CPU time |     Clock time
  SCF    1 : -0.53E-04 |  0.30E+00 |   0.24E+02 |  0.14E+01 |             . |        0.080 s |        0.071 s
  SCF    2 : -0.11E-03 |  0.16E+00 |   0.17E+02 |  0.40E+00 |             . |        0.070 s |        0.070 s
  SCF    3 : -0.17E-03 |  0.10E+00 |   0.14E+01 |  0.68E-01 |             . |        0.070 s |        0.071 s
  SCF    4 : -0.18E-03 |  0.28E-01 |   0.40E+01 |  0.15E-01 |             . |        0.070 s |        0.076 s
  SCF    5 : -0.18E-03 |  0.21E-02 |   0.16E+00 |  0.41E-04 |             . |        0.070 s |        0.072 s
  SCF    6 : -0.18E-03 |  0.94E-03 |   0.43E-01 | -0.25E-04 |             . |        0.080 s |        0.073 s
  SCF    7 : -0.18E-03 |  0.64E-03 |  -0.78E-01 |  0.14E-04 |             . |        0.070 s |        0.074 s
  SCF    8 : -0.18E-03 |  0.63E-04 |  -0.26E-02 | -0.10E-05 |             . |        0.080 s |        0.075 s
  SCF    9 : -0.18E-03 |  0.44E-04 |   0.53E-02 | -0.37E-06 |             . |        0.080 s |        0.076 s
  SCF   10 : -0.18E-03 |  0.65E-05 |   0.80E-03 |  0.38E-08 |             . |        0.080 s |        0.079 s
  SCF   11 : -0.18E-03 |  0.85E-06 |  -0.76E-04 |  0.15E-07 |      0.97E+01 |        0.110 s |        0.123 s
  SCF   12 : -0.18E-03 |  0.20E-06 |  -0.15E-04 | -0.52E-08 |      0.10E-04 |        0.160 s |        0.163 s

  Total energy components:
  | Sum of eigenvalues            :         -41.47403171 Ha       -1128.56582374 eV
  | XC energy correction          :          -9.20519648 Ha        -250.48614091 eV
  | XC potential correction       :          11.84009616 Ha         322.18540907 eV
  | Free-atom electrostatic energy:         -35.82681687 Ha        -974.89728927 eV
  | Hartree energy correction     :          -1.71589017 Ha         -46.69174730 eV
  | Entropy correction            :           0.00000000 Ha           0.00000000 eV
  | ---------------------------
  | Total energy                  :         -76.38183908 Ha       -2078.45559215 eV
  | Total energy, T -> 0          :         -76.38183908 Ha       -2078.45559215 eV  <-- do not rely on this value for anything but (periodic) metals
  | Electronic free energy        :         -76.38183908 Ha       -2078.45559215 eV

  Derived energy quantities:
  | Kinetic energy                :          75.99501532 Ha        2067.92958184 eV
  | Electrostatic energy          :        -143.17165792 Ha       -3895.89903308 eV
  | Energy correction for multipole
  | error in Hartree potential    :          -0.00309898 Ha          -0.08432766 eV
  | Sum of eigenvalues per atom                           :        -376.18860791 eV
  | Total energy (T->0) per atom                          :        -692.81853072 eV  <-- do not rely on this value for anything but (periodic) metals
  | Electronic free energy per atom                       :        -692.81853072 eV
  Highest occupied state (VBM) at     -7.00527532 eV
  | Occupation number:      2.00000000

  Lowest unoccupied state (CBM) at    -0.10592345 eV
  | Occupation number:      0.00000000

  Overall HOMO-LUMO gap:      6.89935187 eV.

  Self-consistency cycle converged.

  ------------------------------------------------------------
   Computing monopole / dipole moments for complete molecule:
  | Total electronic charge [e]         :          0.100000000000005E+02
  | Total ionic charge [e]              :          0.100000000000000E+02
  | Total charge [e]                    :         -0.532907051820075E-12
  | Total dipole moment [eAng]          :         -0.134391705305936E-14         0.407631511176635E+00         0.352502833589341E-15
  | Absolute dipole moment              :          0.407631511176635E+00 eAng              /                   0.195763244892749E+01 Debye  .
  Removing unitary transformations (pure translations, rotations) from forces on atoms.
  Atomic forces before filtering:
  | Net force on center of mass :   0.466086E-12  0.253442E-02  0.181751E-12 eV/A
  | Net torque on center of mass:  -0.745893E-13  0.889761E-14  0.179374E-12 eV
  Atomic forces after filtering:
  | Net force on center of mass :  -0.122527E-15  0.000000E+00 -0.608473E-28 eV/A
  | Net torque on center of mass:   0.243389E-28  0.000000E+00  0.380595E-16 eV

  Energy and forces in a compact form:
  | Total energy uncorrected      :         -0.207845559215091E+04 eV
  | Total energy corrected        :         -0.207845559215091E+04 eV  <-- do not rely on this value for anything but (periodic) metals
  | Electronic free energy        :         -0.207845559215091E+04 eV
  Total atomic forces (unitary forces cleaned) [eV/Ang]:
  |   1         -0.117132310942726E+01         -0.593917569936655E+00          0.000000000000000E+00
  |   2          0.117132310942690E+01         -0.593917569936384E+00          0.000000000000000E+00
  |   3          0.360971467966310E-12          0.118783513987304E+01         -0.608472842461990E-28

  Relaxation / MD: End force evaluation.       :  max(cpu_time)    wall_clock(cpu1)
  | Time for this force evaluation             :        1.100 s           1.127 s

------------------------------------------------------------
  Molecular dynamics: Attempting to update all nuclear coordinates.

  Removing unitary transformations (pure translations, rotations) from forces on atoms.
  Atomic forces before filtering:
  | Net force on center of mass :  -0.122527E-15  0.000000E+00 -0.608473E-28 eV/A
  | Net torque on center of mass:   0.243389E-28  0.000000E+00  0.380595E-16 eV
  Atomic forces after filtering:
  | Net force on center of mass :  -0.999671E-16  0.000000E+00  0.135108E-43 eV/A
  | Net torque on center of mass:  -0.540432E-44  0.000000E+00 -0.473249E-16 eV
  | Initial seed for random number generator from system time:                   212036
  Initializing velocities for molecular dynamics using Maxwell-Boltzmann distribution

------------------------------------------------------------
  Advancing structure using Born-Oppenheimer Molecular Dynamics:
  Complete information for previous time-step:
  | Time step number          :        0
  | Simulation time           :           0.000000000000000E+00 ps
  | Electronic free energy    :          -0.207845559215091E+04 eV
  | Temperature (nuclei)      :           0.300000000000000E+03 K
  | Nuclear kinetic energy    :           0.116334130674625E+00 eV
  | Total energy (el.+nuc.)   :          -0.207833925802023E+04 eV
  | Thermostat value ln(s)    :           0.000000000000000E+00
  | Thermostat momentum pi    :           0.000000000000000E+00 eV ps
  | Nose-Hoover Hamiltonian   :          -0.207833925802023E+04 eV
------------------------------------------------------------
  Atomic structure (and velocities) as used in the preceding time step:
                      x [A]             y [A]             z [A]       Atom
   atom               0.80000000        0.60000000        0.00000000  H
     velocity          -7.41004799         29.94430164          0.00000000
   atom              -0.80000000        0.60000000        0.00000000  H
     velocity           4.94732158         31.79134646          0.00000000
   atom               0.00000000        0.00000000        0.00000000  O
     velocity           0.15514835         -3.88926017          0.00000000
------------------------------------------------------------

------------------------------------------------------------
          Begin self-consistency loop: Re-initialization.

  Date     :  20160201, Time     :  212036.080
------------------------------------------------------------

  Initializing index lists of integration centers etc. from given atomic structure:
  | Number of centers in hartree potential         :         3
  | Number of centers in hartree multipole         :         3
  | Number of centers in electron density summation:         3
  | Number of centers in basis integrals           :         3
  | Number of centers in integrals                 :         3
  | Number of centers in hamiltonian               :         3
  Partitioning the integration grid into batches with parallel hashing+maxmin method.
  Initializing partition tables, free-atom densities, potentials, etc. across the integration grid (initialize_grid_storage).
  | Species        1: outer_partition_radius set to              5.054417573612229 AA .
  | Species        2: outer_partition_radius set to              5.048384829883283 AA .
  | Net number of integration points:    15924
  | of which are non-zero points    :    14588
  Calculating total energy contributions from superposition of free atom densities.
  Initialize hartree_potential_storage
  Max. number of atoms included in rho_multipole:            3
  Integrating overlap matrix.
  Time summed over all CPUs for integration: real work        0.018 s, elapsed        0.019 s
  Normalizing  ScaLAPACK eigenvectors
  Deallocating overlap matrix.
  Orthonormalizing eigenvectors

  End scf reinitialization - timings           :  max(cpu_time)    wall_clock(cpu1)
  | Time for scf. reinitialization             :        0.040 s           0.045 s
  | Integration                                :        0.010 s           0.010 s
  | Grid partitioning                          :        0.010 s           0.014 s
  | Preloading free-atom quantities on grid    :        0.010 s           0.010 s
  | Free-atom superposition energy             :        0.010 s           0.010 s
  | K.-S. eigenvector reorthonormalization     :        0.000 s           0.000 s
------------------------------------------------------------
Convergence:    q app. |  density  | eigen (eV) | Etot (eV) | forces (eV/A) |       CPU time |     Clock time
  SCF    1 : -0.18E-03 |  0.17E+00 |  -0.11E+04 | -0.21E+04 |             . |        0.080 s |        0.070 s
  SCF    2 : -0.18E-03 |  0.85E-02 |  -0.56E+00 |  0.77E-03 |             . |        0.090 s |        0.096 s
  SCF    3 : -0.18E-03 |  0.40E-02 |  -0.34E+00 |  0.13E-03 |             . |        0.070 s |        0.072 s
  SCF    4 : -0.18E-03 |  0.20E-02 |  -0.23E-01 |  0.17E-04 |             . |        0.070 s |        0.070 s
  SCF    5 : -0.18E-03 |  0.12E-03 |   0.58E-02 |  0.59E-06 |             . |        0.070 s |        0.072 s
  SCF    6 : -0.18E-03 |  0.39E-04 |  -0.45E-02 | -0.23E-06 |             . |        0.070 s |        0.071 s
  SCF    7 : -0.18E-03 |  0.19E-04 |   0.83E-03 |  0.25E-06 |             . |        0.080 s |        0.073 s
  SCF    8 : -0.18E-03 |  0.19E-05 |   0.55E-04 |  0.20E-07 |             . |        0.070 s |        0.074 s
  SCF    9 : -0.18E-03 |  0.23E-06 |   0.30E-04 |  0.81E-09 |      0.93E+01 |        0.110 s |        0.106 s
  SCF   10 : -0.18E-03 |  0.60E-07 |  -0.20E-06 |  0.52E-09 |      0.47E-05 |        0.170 s |        0.163 s

  Total energy components:
  | Sum of eigenvalues            :         -41.47025328 Ha       -1128.46300730 eV
  | XC energy correction          :          -9.19717470 Ha        -250.26785721 eV
  | XC potential correction       :          11.82949117 Ha         321.89683256 eV
  | Free-atom electrostatic energy:         -35.86400115 Ha        -975.90912513 eV
  | Hartree energy correction     :          -1.67909640 Ha         -45.69053787 eV
  | Entropy correction            :           0.00000000 Ha           0.00000000 eV
  | ---------------------------
  | Total energy                  :         -76.38103438 Ha       -2078.43369495 eV
  | Total energy, T -> 0          :         -76.38103438 Ha       -2078.43369495 eV  <-- do not rely on this value for anything but (periodic) metals
  | Electronic free energy        :         -76.38103438 Ha       -2078.43369495 eV

  Derived energy quantities:
  | Kinetic energy                :          75.97417271 Ha        2067.36242563 eV
  | Electrostatic energy          :        -143.15803238 Ha       -3895.52826338 eV
  | Energy correction for multipole
  | error in Hartree potential    :          -0.00306126 Ha          -0.08330103 eV
  | Sum of eigenvalues per atom                           :        -376.15433577 eV
  | Total energy (T->0) per atom                          :        -692.81123165 eV  <-- do not rely on this value for anything but (periodic) metals
  | Electronic free energy per atom                       :        -692.81123165 eV
  Highest occupied state (VBM) at     -7.00440126 eV
  | Occupation number:      2.00000000

  Lowest unoccupied state (CBM) at    -0.17594696 eV
  | Occupation number:      0.00000000

  Overall HOMO-LUMO gap:      6.82845430 eV.

  Self-consistency cycle converged.

  ------------------------------------------------------------
   Computing monopole / dipole moments for complete molecule:
  | Total electronic charge [e]         :          0.999999999999998E+01
  | Total ionic charge [e]              :          0.100000000000000E+02
  | Total charge [e]                    :          0.248689957516035E-13
  | Total dipole moment [eAng]          :         -0.486049866171957E-03         0.420746640458232E+00         0.195037904898909E-15
  | Absolute dipole moment              :          0.420746921202474E+00 eAng              /                   0.202061863018090E+01 Debye  .
  Removing unitary transformations (pure translations, rotations) from forces on atoms.
  Atomic forces before filtering:
  | Net force on center of mass :   0.105469E-03  0.167326E-02 -0.440576E-12 eV/A
  | Net torque on center of mass:   0.177028E-12 -0.210981E-13  0.311692E-04 eV
  Atomic forces after filtering:
  | Net force on center of mass :  -0.892031E-16  0.000000E+00  0.405649E-28 eV/A
  | Net torque on center of mass:  -0.980329E-22  0.163949E-22  0.177016E-15 eV

  Energy and forces in a compact form:
  | Total energy uncorrected      :         -0.207843369494793E+04 eV
  | Total energy corrected        :         -0.207843369494793E+04 eV  <-- do not rely on this value for anything but (periodic) metals
  | Electronic free energy        :         -0.207843369494793E+04 eV
  Total atomic forces (unitary forces cleaned) [eV/Ang]:
  |   1         -0.118892459382641E+01         -0.964428632230438E+00          0.168420930602230E-17
  |   2          0.129045243756738E+01         -0.104514772743824E+01         -0.800914851644788E-17
  |   3         -0.101527843740969E+00          0.200957635966868E+01          0.632493921046614E-17

  Relaxation / MD: End force evaluation.       :  max(cpu_time)    wall_clock(cpu1)
  | Time for this force evaluation             :        0.920 s           0.929 s

------------------------------------------------------------
  Molecular dynamics: Attempting to update all nuclear coordinates.

  Removing unitary transformations (pure translations, rotations) from forces on atoms.
  Atomic forces before filtering:
  | Net force on center of mass :  -0.892031E-16  0.000000E+00  0.405649E-28 eV/A
  | Net torque on center of mass:  -0.980329E-22  0.163949E-22  0.177016E-15 eV
  Atomic forces after filtering:
  | Net force on center of mass :  -0.111504E-15  0.000000E+00 -0.123794E-32 eV/A
  | Net torque on center of mass:  -0.655090E-33  0.122701E-32 -0.236021E-16 eV
  Cleaning translations and rotations from velocities
  | Net linear  momentum before cleaning:   -0.1110E-013   0.2842E-013   0.4596E-013
  | Net angular momentum before cleaning:   -0.2323E-013   0.1730E-013   0.9326E-014
  | Net linear  momentum after cleaning:     0.3997E-014   0.1421E-013  -0.6311E-029
  | Net angular momentum after cleaning:    -0.1011E-028  -0.5754E-030  -0.1865E-013
  | Velocity rescaling factor to preserve kinetic energy before and after cleaning:   1.00000000
------------------------------------------------------------
  Advancing structure using Born-Oppenheimer Molecular Dynamics:
  Complete information for previous time-step:
  | Time step number          :        1
  | Simulation time           :           0.100000000000000E-02 ps
  | Electronic free energy    :          -0.207843369494793E+04 eV
  | Temperature (nuclei)      :           0.248813896696574E+03 K
  | Nuclear kinetic energy    :           0.964851612398731E-01 eV
  | Total energy (el.+nuc.)   :          -0.207833720978669E+04 eV
  | Thermostat value ln(s)    :          -0.616625152972719E-03
  | Thermostat momentum pi    :          -0.199084279409149E-04 eV ps
  | Nose-Hoover Hamiltonian   :          -0.207833732877682E+04 eV
------------------------------------------------------------
  Atomic structure (and velocities) as used in the preceding time step:
                      x [A]             y [A]             z [A]       Atom
   atom               0.78698369        0.62710165        0.00000000  H
     velocity         -18.71835704         22.49951363          0.00000000
   atom              -0.78944642        0.62894870        0.00000000  H
     velocity          16.74035045         23.96111647          0.00000000
   atom               0.00015515       -0.00353109        0.00000000  O
     velocity           0.12461167         -2.92695523          0.00000000
------------------------------------------------------------
          Begin self-consistency loop: Re-initialization.

  Date     :  20160201, Time     :  212037.009
------------------------------------------------------------
  Partitioning the integration grid into batches with parallel hashing+maxmin method.
  Initializing partition tables, free-atom densities, potentials, etc. across the integration grid (initialize_grid_storage).
  | Species        1: outer_partition_radius set to              5.054417573612229 AA .
  | Species        2: outer_partition_radius set to              5.048384829883283 AA .
  | Net number of integration points:    15924
  | of which are non-zero points    :    14581
  Calculating total energy contributions from superposition of free atom densities.
  Initialize hartree_potential_storage
  Max. number of atoms included in rho_multipole:            3
  Integrating overlap matrix.
  Time summed over all CPUs for integration: real work        0.018 s, elapsed        0.018 s
  Normalizing  ScaLAPACK eigenvectors
  Deallocating overlap matrix.
  Orthonormalizing eigenvectors

  End scf reinitialization - timings           :  max(cpu_time)    wall_clock(cpu1)
  | Time for scf. reinitialization             :        0.050 s           0.045 s
  | Integration                                :        0.010 s           0.009 s
  | Grid partitioning                          :        0.020 s           0.014 s
  | Preloading free-atom quantities on grid    :        0.010 s           0.011 s
  | Free-atom superposition energy             :        0.010 s           0.010 s
  | K.-S. eigenvector reorthonormalization     :        0.000 s           0.001 s
------------------------------------------------------------
Convergence:    q app. |  density  | eigen (eV) | Etot (eV) | forces (eV/A) |       CPU time |     Clock time
  SCF    1 : -0.19E-03 |  0.17E+00 |  -0.11E+04 | -0.21E+04 |             . |        0.070 s |        0.069 s
  SCF    2 : -0.19E-03 |  0.26E-02 |   0.87E-01 |  0.64E-04 |             . |        0.070 s |        0.069 s
  SCF    3 : -0.19E-03 |  0.19E-02 |   0.15E+00 |  0.47E-04 |             . |        0.070 s |        0.070 s
  SCF    4 : -0.19E-03 |  0.48E-03 |  -0.78E-02 | -0.44E-05 |             . |        0.080 s |        0.071 s
  SCF    5 : -0.19E-03 |  0.18E-03 |   0.24E-02 |  0.14E-06 |             . |        0.070 s |        0.071 s
  SCF    6 : -0.19E-03 |  0.25E-04 |  -0.93E-03 | -0.51E-07 |             . |        0.070 s |        0.071 s
  SCF    7 : -0.19E-03 |  0.26E-05 |   0.29E-03 | -0.20E-08 |             . |        0.070 s |        0.073 s
  SCF    8 : -0.19E-03 |  0.11E-05 |   0.45E-05 |  0.48E-08 |      0.92E+01 |        0.110 s |        0.104 s
  SCF    9 : -0.19E-03 |  0.23E-06 |   0.17E-04 |  0.20E-08 |      0.46E-04 |        0.170 s |        0.163 s

  Total energy components:
  | Sum of eigenvalues            :         -41.48645508 Ha       -1128.90388064 eV
  | XC energy correction          :          -9.20201831 Ha        -250.39965851 eV
  | XC potential correction       :          11.83583487 Ha         322.06945345 eV
  | Free-atom electrostatic energy:         -35.84195465 Ha        -975.30920913 eV
  | Hartree energy correction     :          -1.68663222 Ha         -45.89559785 eV
  | Entropy correction            :           0.00000000 Ha           0.00000000 eV
  | ---------------------------
  | Total energy                  :         -76.38122539 Ha       -2078.43889268 eV
  | Total energy, T -> 0          :         -76.38122539 Ha       -2078.43889268 eV  <-- do not rely on this value for anything but (periodic) metals
  | Electronic free energy        :         -76.38122539 Ha       -2078.43889268 eV

  Derived energy quantities:
  | Kinetic energy                :          75.99573867 Ha        2067.94926522 eV
  | Electrostatic energy          :        -143.17494574 Ha       -3895.98849939 eV
  | Energy correction for multipole
  | error in Hartree potential    :          -0.00316876 Ha          -0.08622631 eV
  | Sum of eigenvalues per atom                           :        -376.30129355 eV
  | Total energy (T->0) per atom                          :        -692.81296423 eV  <-- do not rely on this value for anything but (periodic) metals
  | Electronic free energy per atom                       :        -692.81296423 eV
  Highest occupied state (VBM) at     -7.03234178 eV
  | Occupation number:      2.00000000

  Lowest unoccupied state (CBM) at    -0.15127081 eV
  | Occupation number:      0.00000000

  Overall HOMO-LUMO gap:      6.88107096 eV.

  Self-consistency cycle converged.

  ------------------------------------------------------------
   Computing monopole / dipole moments for complete molecule:
  | Total electronic charge [e]         :          0.100000000000000E+02
  | Total ionic charge [e]              :          0.100000000000000E+02
  | Total charge [e]                    :         -0.177635683940025E-14
  | Total dipole moment [eAng]          :         -0.735754763694195E-03         0.431503637257204E+00         0.139580763050579E-14
  | Absolute dipole moment              :          0.431504264522692E+00 eAng              /                   0.207228029953302E+01 Debye  .
  Removing unitary transformations (pure translations, rotations) from forces on atoms.
  Atomic forces before filtering:
  | Net force on center of mass :   0.151491E-03  0.192506E-02 -0.291389E-12 eV/A
  | Net torque on center of mass:   0.121106E-12  0.113514E-13  0.458444E-04 eV
  Atomic forces after filtering:
  | Net force on center of mass :  -0.446015E-16  0.000000E+00  0.608473E-28 eV/A
  | Net torque on center of mass:  -0.140980E-21  0.268398E-22  0.944085E-16 eV

  Energy and forces in a compact form:
  | Total energy uncorrected      :         -0.207843889267652E+04 eV
  | Total energy corrected        :         -0.207843889267652E+04 eV  <-- do not rely on this value for anything but (periodic) metals
  | Electronic free energy        :         -0.207843889267652E+04 eV
  Total atomic forces (unitary forces cleaned) [eV/Ang]:
  |   1         -0.722441626734658E+00         -0.100439214253231E+01         -0.212797959531282E-18
  |   2          0.886461058742819E+00         -0.114116949397748E+01         -0.675229861702087E-17
  |   3         -0.164019432008161E+00          0.214556163650979E+01          0.696509657661299E-17

  Relaxation / MD: End force evaluation.       :  max(cpu_time)    wall_clock(cpu1)
  | Time for this force evaluation             :        0.820 s           0.820 s

------------------------------------------------------------
  Molecular dynamics: Attempting to update all nuclear coordinates.

  Removing unitary transformations (pure translations, rotations) from forces on atoms.
  Atomic forces before filtering:
  | Net force on center of mass :  -0.446015E-16  0.000000E+00  0.608473E-28 eV/A
  | Net torque on center of mass:  -0.140980E-21  0.268398E-22  0.944085E-16 eV
  Atomic forces after filtering:
  | Net force on center of mass :   0.446015E-16  0.000000E+00  0.000000E+00 eV/A
  | Net torque on center of mass:  -0.327545E-33  0.191921E-33  0.944085E-16 eV
  Cleaning translations and rotations from velocities
  | Net linear  momentum before cleaning:   -0.2665E-014   0.7105E-014  -0.6409E-029
  | Net angular momentum before cleaning:   -0.1005E-028  -0.4710E-030  -0.5093E-014
  | Net linear  momentum after cleaning:    -0.2026E-014  -0.3553E-014   0.4930E-031
  | Net angular momentum after cleaning:    -0.1233E-031   0.3736E-031  -0.4566E-014
  | Velocity rescaling factor to preserve kinetic energy before and after cleaning:   1.00000000
------------------------------------------------------------
  Advancing structure using Born-Oppenheimer Molecular Dynamics:
  Complete information for previous time-step:
  | Time step number          :        2
  | Simulation time           :           0.200000000000000E-02 ps
  | Electronic free energy    :          -0.207843889267652E+04 eV
  | Temperature (nuclei)      :           0.259878803957705E+03 K
  | Nuclear kinetic energy    :           0.100775915797270E+00 eV
  | Total energy (el.+nuc.)   :          -0.207833811676072E+04 eV
  | Thermostat value ln(s)    :          -0.540235559016354E-02
  | Thermostat momentum pi    :          -0.554332397666765E-04 eV ps
  | Nose-Hoover Hamiltonian   :          -0.207833918393338E+04 eV
------------------------------------------------------------
  Atomic structure (and velocities) as used in the preceding time step:
                      x [A]             y [A]             z [A]       Atom
   atom               0.76254030        0.64502665        0.00000000  H
     velocity         -27.98342247         13.15637532          0.00000000
   atom              -0.76649875        0.64795165        0.00000000  H
     velocity          27.27065281         13.58092581          0.00000000
   atom               0.00024938       -0.00585750        0.00000000  O
     velocity           0.04490350         -1.68441287          0.00000000
------------------------------------------------------------
          Begin self-consistency loop: Re-initialization.

  Date     :  20160201, Time     :  212037.830
------------------------------------------------------------
  Partitioning the integration grid into batches with parallel hashing+maxmin method.
  Initializing partition tables, free-atom densities, potentials, etc. across the integration grid (initialize_grid_storage).
  | Species        1: outer_partition_radius set to              5.054417573612229 AA .
  | Species        2: outer_partition_radius set to              5.048384829883283 AA .
  | Net number of integration points:    15924
  | of which are non-zero points    :    14521
  Calculating total energy contributions from superposition of free atom densities.
  Initialize hartree_potential_storage
  Max. number of atoms included in rho_multipole:            3
  Integrating overlap matrix.
  Time summed over all CPUs for integration: real work        0.019 s, elapsed        0.019 s
  Normalizing  ScaLAPACK eigenvectors
  Deallocating overlap matrix.
  Orthonormalizing eigenvectors

  End scf reinitialization - timings           :  max(cpu_time)    wall_clock(cpu1)
  | Time for scf. reinitialization             :        0.050 s           0.047 s
  | Integration                                :        0.010 s           0.009 s
  | Grid partitioning                          :        0.020 s           0.014 s
  | Preloading free-atom quantities on grid    :        0.010 s           0.013 s
  | Free-atom superposition energy             :        0.010 s           0.010 s
  | K.-S. eigenvector reorthonormalization     :        0.000 s           0.000 s
------------------------------------------------------------
Convergence:    q app. |  density  | eigen (eV) | Etot (eV) | forces (eV/A) |       CPU time |     Clock time
  SCF    1 : -0.21E-03 |  0.17E+00 |  -0.11E+04 | -0.21E+04 |             . |        0.070 s |        0.069 s
  SCF    2 : -0.21E-03 |  0.91E-02 |   0.63E+00 |  0.10E-02 |             . |        0.080 s |        0.080 s
  SCF    3 : -0.21E-03 |  0.47E-02 |   0.48E+00 |  0.34E-03 |             . |        0.070 s |        0.068 s
  SCF    4 : -0.21E-03 |  0.22E-02 |   0.11E+00 |  0.35E-04 |             . |        0.070 s |        0.071 s
  SCF    5 : -0.21E-03 |  0.40E-03 |   0.88E-02 |  0.64E-06 |             . |        0.070 s |        0.070 s
  SCF    6 : -0.21E-03 |  0.37E-04 |  -0.35E-02 | -0.19E-06 |             . |        0.070 s |        0.073 s
  SCF    7 : -0.21E-03 |  0.20E-04 |  -0.66E-03 | -0.36E-06 |             . |        0.070 s |        0.072 s
  SCF    8 : -0.21E-03 |  0.95E-06 |   0.76E-04 |  0.52E-08 |             . |        0.080 s |        0.072 s
  SCF    9 : -0.21E-03 |  0.14E-06 |   0.15E-04 | -0.27E-09 |      0.94E+01 |        0.100 s |        0.103 s
  SCF   10 : -0.21E-03 |  0.12E-06 |  -0.12E-04 |  0.91E-09 |      0.23E-04 |        0.160 s |        0.162 s

  Total energy components:
  | Sum of eigenvalues            :         -41.51884224 Ha       -1129.78518022 eV
  | XC energy correction          :          -9.21793101 Ha        -250.83266496 eV
  | XC potential correction       :          11.85675893 Ha         322.63882622 eV
  | Free-atom electrostatic energy:         -35.76764915 Ha        -973.28725378 eV
  | Hartree energy correction     :          -1.73379171 Ha         -47.17887277 eV
  | Entropy correction            :           0.00000000 Ha           0.00000000 eV
  | ---------------------------
  | Total energy                  :         -76.38145518 Ha       -2078.44514551 eV
  | Total energy, T -> 0          :         -76.38145518 Ha       -2078.44514551 eV  <-- do not rely on this value for anything but (periodic) metals
  | Electronic free energy        :         -76.38145518 Ha       -2078.44514551 eV

  Derived energy quantities:
  | Kinetic energy                :          76.05448218 Ha        2069.54775744 eV
  | Electrostatic energy          :        -143.21800635 Ha       -3897.16023799 eV
  | Energy correction for multipole
  | error in Hartree potential    :          -0.00341215 Ha          -0.09284927 eV
  | Sum of eigenvalues per atom                           :        -376.59506007 eV
  | Total energy (T->0) per atom                          :        -692.81504850 eV  <-- do not rely on this value for anything but (periodic) metals
  | Electronic free energy per atom                       :        -692.81504850 eV
  Highest occupied state (VBM) at     -7.08282021 eV
  | Occupation number:      2.00000000

  Lowest unoccupied state (CBM) at    -0.05540297 eV
  | Occupation number:      0.00000000

  Overall HOMO-LUMO gap:      7.02741724 eV.

  Self-consistency cycle converged.

  ------------------------------------------------------------
   Computing monopole / dipole moments for complete molecule:
  | Total electronic charge [e]         :          0.100000000000000E+02
  | Total ionic charge [e]              :          0.100000000000000E+02
  | Total charge [e]                    :         -0.124344978758018E-13
  | Total dipole moment [eAng]          :         -0.722943847970498E-03         0.439286578103027E+00        -0.535589988649875E-15
  | Absolute dipole moment              :          0.439287172985138E+00 eAng              /                   0.210965737597428E+01 Debye  .
  Removing unitary transformations (pure translations, rotations) from forces on atoms.
  Atomic forces before filtering:
  | Net force on center of mass :   0.222088E-03  0.311969E-02 -0.418164E-12 eV/A
  | Net torque on center of mass:   0.192983E-12 -0.146137E-14  0.771779E-04 eV
  Atomic forces after filtering:
  | Net force on center of mass :   0.223008E-16  0.000000E+00  0.101412E-27 eV/A
  | Net torque on center of mass:  -0.231927E-21  0.493496E-22 -0.944085E-16 eV

  Energy and forces in a compact form:
  | Total energy uncorrected      :         -0.207844514551433E+04 eV
  | Total energy corrected        :         -0.207844514551433E+04 eV  <-- do not rely on this value for anything but (periodic) metals
  | Electronic free energy        :         -0.207844514551433E+04 eV
  Total atomic forces (unitary forces cleaned) [eV/Ang]:
  |   1          0.154893961161738E+00         -0.702635502045501E+00         -0.266693333801954E-17
  |   2          0.185531101811283E-01         -0.854317902355404E+00         -0.259511143887975E-17
  |   3         -0.173447071342866E+00          0.155695340440090E+01          0.526204477700070E-17

  Relaxation / MD: End force evaluation.       :  max(cpu_time)    wall_clock(cpu1)
  | Time for this force evaluation             :        0.890 s           0.903 s

------------------------------------------------------------
  Molecular dynamics: Attempting to update all nuclear coordinates.

  Removing unitary transformations (pure translations, rotations) from forces on atoms.
  Atomic forces before filtering:
  | Net force on center of mass :   0.223008E-16  0.000000E+00  0.101412E-27 eV/A
  | Net torque on center of mass:  -0.231927E-21  0.493496E-22 -0.944085E-16 eV
  Atomic forces after filtering:
  | Net force on center of mass :   0.000000E+00  0.000000E+00  0.000000E+00 eV/A
  | Net torque on center of mass:   0.000000E+00  0.246938E-33 -0.944085E-16 eV
  Cleaning translations and rotations from velocities
  | Net linear  momentum before cleaning:   -0.5329E-014  -0.8882E-014   0.6779E-031
  | Net angular momentum before cleaning:   -0.1387E-031  -0.6162E-031  -0.1465E-013
  | Net linear  momentum after cleaning:    -0.1776E-014   0.4441E-015  -0.5932E-031
  | Net angular momentum after cleaning:     0.2927E-031   0.7867E-031   0.2665E-014
  | Velocity rescaling factor to preserve kinetic energy before and after cleaning:   1.00000000
------------------------------------------------------------
  Advancing structure using Born-Oppenheimer Molecular Dynamics:
  Complete information for previous time-step:
  | Time step number          :        3
  | Simulation time           :           0.300000000000000E-02 ps
  | Electronic free energy    :          -0.207844514551433E+04 eV
  | Temperature (nuclei)      :           0.272224385635976E+03 K
  | Nuclear kinetic energy    :           0.105563290837984E+00 eV
  | Total energy (el.+nuc.)   :          -0.207833958222349E+04 eV
  | Thermostat value ln(s)    :          -0.140298770890285E-01
  | Thermostat momentum pi    :          -0.818635871028970E-04 eV ps
  | Nose-Hoover Hamiltonian   :          -0.207834243262560E+04 eV
------------------------------------------------------------
  Atomic structure (and velocities) as used in the preceding time step:
                      x [A]             y [A]             z [A]       Atom
   atom               0.73098962        0.65342720        0.00000000  H
     velocity         -30.95518911          5.06140405          0.00000000
   atom              -0.73487858        0.65612376        0.00000000  H
     velocity          31.85909477          4.10245168          0.00000000
   atom               0.00024500       -0.00690156        0.00000000  O
     velocity          -0.05694480         -0.57731020          0.00000000
------------------------------------------------------------
          Begin self-consistency loop: Re-initialization.

  Date     :  20160201, Time     :  212038.734
------------------------------------------------------------
  Partitioning the integration grid into batches with parallel hashing+maxmin method.
  Initializing partition tables, free-atom densities, potentials, etc. across the integration grid (initialize_grid_storage).
  | Species        1: outer_partition_radius set to              5.054417573612229 AA .
  | Species        2: outer_partition_radius set to              5.048384829883283 AA .
  | Net number of integration points:    15924
  | of which are non-zero points    :    14508
  Calculating total energy contributions from superposition of free atom densities.
  Initialize hartree_potential_storage
  Max. number of atoms included in rho_multipole:            3
  Integrating overlap matrix.
  Time summed over all CPUs for integration: real work        0.018 s, elapsed        0.019 s
  Normalizing  ScaLAPACK eigenvectors
  Deallocating overlap matrix.
  Orthonormalizing eigenvectors

  End scf reinitialization - timings           :  max(cpu_time)    wall_clock(cpu1)
  | Time for scf. reinitialization             :        0.040 s           0.044 s
  | Integration                                :        0.010 s           0.010 s
  | Grid partitioning                          :        0.010 s           0.014 s
  | Preloading free-atom quantities on grid    :        0.010 s           0.010 s
  | Free-atom superposition energy             :        0.010 s           0.010 s
  | K.-S. eigenvector reorthonormalization     :        0.000 s           0.000 s
------------------------------------------------------------
Convergence:    q app. |  density  | eigen (eV) | Etot (eV) | forces (eV/A) |       CPU time |     Clock time
  SCF    1 : -0.22E-03 |  0.17E+00 |  -0.11E+04 | -0.21E+04 |             . |        0.070 s |        0.070 s
  SCF    2 : -0.22E-03 |  0.12E-01 |   0.85E+00 |  0.18E-02 |             . |        0.070 s |        0.074 s
  SCF    3 : -0.22E-03 |  0.63E-02 |   0.66E+00 |  0.59E-03 |             . |        0.090 s |        0.082 s
  SCF    4 : -0.22E-03 |  0.29E-02 |   0.14E+00 |  0.57E-04 |             . |        0.070 s |        0.071 s
  SCF    5 : -0.22E-03 |  0.51E-03 |   0.94E-02 |  0.14E-05 |             . |        0.070 s |        0.071 s
  SCF    6 : -0.22E-03 |  0.59E-04 |  -0.65E-02 | -0.33E-06 |             . |        0.070 s |        0.071 s
  SCF    7 : -0.22E-03 |  0.21E-04 |  -0.70E-03 | -0.61E-06 |             . |        0.080 s |        0.073 s
  SCF    8 : -0.22E-03 |  0.12E-05 |  -0.16E-04 |  0.84E-09 |             . |        0.070 s |        0.076 s
  SCF    9 : -0.22E-03 |  0.27E-06 |   0.76E-05 | -0.11E-08 |      0.10E+02 |        0.110 s |        0.104 s
  SCF   10 : -0.22E-03 |  0.19E-06 |  -0.40E-05 |  0.31E-08 |      0.28E-04 |        0.170 s |        0.164 s

  Total energy components:
  | Sum of eigenvalues            :         -41.55715718 Ha       -1130.82778271 eV
  | XC energy correction          :          -9.23866607 Ha        -251.39689467 eV
  | XC potential correction       :          11.88402980 Ha         323.38090431 eV
  | Free-atom electrostatic energy:         -35.66735668 Ha        -970.55815676 eV
  | Hartree energy correction     :          -1.80087554 Ha         -49.00431665 eV
  | Entropy correction            :           0.00000000 Ha           0.00000000 eV
  | ---------------------------
  | Total energy                  :         -76.38002566 Ha       -2078.40624647 eV
  | Total energy, T -> 0          :         -76.38002566 Ha       -2078.40624647 eV  <-- do not rely on this value for anything but (periodic) metals
  | Electronic free energy        :         -76.38002566 Ha       -2078.40624647 eV

  Derived energy quantities:
  | Kinetic energy                :          76.13129966 Ha        2071.63806756 eV
  | Electrostatic energy          :        -143.27265926 Ha       -3898.64741936 eV
  | Energy correction for multipole
  | error in Hartree potential    :          -0.00371894 Ha          -0.10119742 eV
  | Sum of eigenvalues per atom                           :        -376.94259424 eV
  | Total energy (T->0) per atom                          :        -692.80208216 eV  <-- do not rely on this value for anything but (periodic) metals
  | Electronic free energy per atom                       :        -692.80208216 eV
  Highest occupied state (VBM) at     -7.14075371 eV
  | Occupation number:      2.00000000

  Lowest unoccupied state (CBM) at     0.05867300 eV
  | Occupation number:      0.00000000

  Overall HOMO-LUMO gap:      7.19942671 eV.

  Self-consistency cycle converged.

  ------------------------------------------------------------
   Computing monopole / dipole moments for complete molecule:
  | Total electronic charge [e]         :          0.100000000000000E+02
  | Total ionic charge [e]              :          0.100000000000000E+02
  | Total charge [e]                    :         -0.710542735760100E-14
  | Total dipole moment [eAng]          :         -0.450517510057113E-03         0.443984835104636E+00        -0.138012873529796E-14
  | Absolute dipole moment              :          0.443985063677730E+00 eAng              /                   0.213221878992088E+01 Debye  .
  Removing unitary transformations (pure translations, rotations) from forces on atoms.
  Atomic forces before filtering:
  | Net force on center of mass :   0.363228E-04  0.478223E-02 -0.533498E-13 eV/A
  | Net torque on center of mass:   0.260138E-13 -0.474014E-14  0.771756E-05 eV
  Atomic forces after filtering:
  | Net force on center of mass :   0.100353E-15  0.000000E+00  0.152118E-28 eV/A
  | Net torque on center of mass:  -0.227080E-22  0.525421E-23  0.413037E-16 eV

  Energy and forces in a compact form:
  | Total energy uncorrected      :         -0.207840624647001E+04 eV
  | Total energy corrected        :         -0.207840624647001E+04 eV  <-- do not rely on this value for anything but (periodic) metals
  | Electronic free energy        :         -0.207840624647001E+04 eV
  Total atomic forces (unitary forces cleaned) [eV/Ang]:
  |   1          0.121693613237603E+01         -0.168199239457229E+00         -0.513766912655471E-17
  |   2         -0.112087815155020E+01         -0.256507003438156E+00          0.351646346084658E-17
  |   3         -0.960579808258318E-01          0.424706242895385E+00          0.162120566572334E-17

  Relaxation / MD: End force evaluation.       :  max(cpu_time)    wall_clock(cpu1)
  | Time for this force evaluation             :        0.880 s           0.914 s

------------------------------------------------------------
  Molecular dynamics: Attempting to update all nuclear coordinates.

  Removing unitary transformations (pure translations, rotations) from forces on atoms.
  Atomic forces before filtering:
  | Net force on center of mass :   0.100353E-15  0.000000E+00  0.152118E-28 eV/A
  | Net torque on center of mass:  -0.227080E-22  0.525421E-23  0.413037E-16 eV
  Atomic forces after filtering:
  | Net force on center of mass :   0.780527E-16  0.892031E-16  0.618971E-33 eV/A
  | Net torque on center of mass:  -0.163773E-33  0.132537E-32  0.354032E-16 eV
  Cleaning translations and rotations from velocities
  | Net linear  momentum before cleaning:    0.2665E-014   0.8882E-015  -0.7396E-031
  | Net angular momentum before cleaning:   -0.1541E-032   0.2288E-030  -0.5329E-014
  | Net linear  momentum after cleaning:     0.2665E-014  -0.8882E-015   0.6163E-032
  | Net angular momentum after cleaning:     0.1387E-031   0.5621E-031   0.0000E+000
  | Velocity rescaling factor to preserve kinetic energy before and after cleaning:   1.00000000
------------------------------------------------------------
  Advancing structure using Born-Oppenheimer Molecular Dynamics:
  Complete information for previous time-step:
  | Time step number          :        4
  | Simulation time           :           0.400000000000000E-02 ps
  | Electronic free energy    :          -0.207840624647001E+04 eV
  | Temperature (nuclei)      :           0.180556480837418E+03 K
  | Nuclear kinetic energy    :           0.700162707863020E-01 eV
  | Total energy (el.+nuc.)   :          -0.207833623019922E+04 eV
  | Thermostat value ln(s)    :          -0.265654787394576E-01
  | Thermostat momentum pi    :          -0.138877211148892E-03 eV ps
  | Nose-Hoover Hamiltonian   :          -0.207834121995279E+04 eV
------------------------------------------------------------
  Final atomic structure (and velocities) as used in the preceding time step:
                      x [A]             y [A]             z [A]       Atom
   atom               0.70060854        0.65515296        0.00000000  H
     velocity         -24.73263678          0.92730997          0.00000000
   atom              -0.70275854        0.65615939        0.00000000  H
     velocity          26.94711933         -1.20063438          0.00000000
   atom               0.00013545       -0.00701252        0.00000000  O
     velocity          -0.13950933          0.01721906          0.00000000
------------------------------------------------------------

------------------------------------------------------------------------------
  Final output of selected total energy values:

  The following output summarizes some interesting total energy values
  at the end of a run (AFTER all relaxation, molecular dynamics, etc.).

  | Total energy of the DFT / Hartree-Fock s.c.f. calculation      :          -2078.406246470 eV
  | Final zero-broadening corrected energy (caution - metals only) :          -2078.406246470 eV
  | For reference only, the value of 1 Hartree used in FHI-aims is :             27.211384500 eV

  Before relying on these values, please be sure to understand exactly which
  total energy value is referred to by a given number. Different objects may
  all carry the same name 'total energy'. Definitions:

  Total energy of the DFT / Hartree-Fock s.c.f. calculation:
  | Note that this energy does not include ANY quantities calculated after the
  | s.c.f. cycle, in particular not ANY RPA, MP2, etc. many-body perturbation terms.

  Final zero-broadening corrected energy:
  | For metallic systems only, a broadening of the occupation numbers at the Fermi
  | level can be extrapolated back to zero broadening by an electron-gas inspired
  | formula. For all systems that are not real metals, this value can be
  | meaningless and should be avoided.

------------------------------------------------------------------------------
  Methods described in the following list of references were used in this FHI-aims run.
  If you publish the results, please make sure to cite these reference if they apply.
  FHI-aims is an academic code, and for our developers (often, Ph.D. students
  and postdocs), scientific credit in the community is essential.
  Thank you for helping us!

  For any use of FHI-aims, please cite:

    Volker Blum, Ralf Gehrke, Felix Hanke, Paula Havu, Ville Havu,
    Xinguo Ren, Karsten Reuter, and Matthias Scheffler
    'Ab initio molecular simulations with numeric atom-centered orbitals'
    Computer Physics Communications 180, 2175-2196 (2009)
    http://dx.doi.org/10.1016/j.cpc.2009.06.022


  The scalable eigensolver library ELPA was used in your run.
  ELPA is essential especially for large systems on hundreds or thousands of CPUs.
  For ELPA, please cite:

    Andreas Marek, Volker Blum, Rainer Johanni, Ville Havu, Bruno Lang,
    Thomas Auckenthaler, Alexander Heinecke, Hans-Joachim Bungartz, and Hermann Lederer,
    'The ELPA Library - Scalable Parallel Eigenvalue Solutions
    for Electronic Structure Theory and Computational Science'
    The Journal of Physics: Condensed Matter 26, 213201 (2014).
    http://dx.doi.org/10.1088/0953-8984/26/21/213201


  For the real-space grid partitioning and parallelization used in this calculation, please cite:

    Ville Havu, Volker Blum, Paula Havu, and Matthias Scheffler,
    'Efficient O(N) integration for all-electron electronic structure calculation'
    'using numerically tabulated basis functions'
    Journal of Computational Physics 228, 8367-8379 (2009).
    http://dx.doi.org/10.1016/j.jcp.2009.08.008

  Of course, there are many other important community references, e.g., those cited in the
  above references. Our list is limited to references that describe implementations in the
  FHI-aims code. The reason is purely practical (length of this list) - please credit others as well.

------------------------------------------------------------
          Leaving FHI-aims.
          Date     :  20160201, Time     :  212039.649

          Computational steps:
          | Number of self-consistency cycles          :           51
          | Number of molecular dynamics steps         :            5
          | Number of force evaluations                :            5

          Detailed time accounting                     :  max(cpu_time)    wall_clock(cpu1)
          | Total time                                 :        4.790 s           4.885 s
          | Preparation time                           :        0.150 s           0.152 s
          | Grid partitioning                          :        0.080 s           0.070 s
          | Preloading free-atom quantities on grid    :        0.040 s           0.048 s
          | Free-atom superposition energy             :        0.050 s           0.050 s
          | Total time for integrations                :        1.630 s           1.513 s
          | Total time for solution of K.-S. equations :        0.070 s           0.029 s
          | Total time for EV reorthonormalization     :        0.000 s           0.001 s
          | Total time for density & force components  :        1.330 s           1.300 s
          | Total time for mixing                      :        0.220 s           0.150 s
          | Total time for Hartree multipole update    :        0.340 s           0.158 s
          | Total time for Hartree multipole sum       :        1.300 s           1.265 s
          | Total time for total energy evaluation     :        0.030 s           0.000 s

          Have a nice day.
------------------------------------------------------------
