24
Energy: -13526.8703819 eV PBE+vdW (tier 2 basis)
N    0.878001  -1.031944  0.242782
C    0.573688  -0.201187  1.417161
C    1.899618  0.061816  2.172845
O    1.970103  0.510911  3.296226
H    0.184160  -0.925209  -0.494309
H    0.948653  -2.024086  0.513213
H    0.301406  0.799345  1.039394
C    -0.580781  -0.656629  2.336864
C    -0.628742  -2.146211  2.699938
C    0.512543  -2.677934  3.598500
C    1.246950  -3.880476  3.005098
N    1.943761  -3.508646  1.759006
H    -1.524590  -0.397081  1.832523
H    -0.533897  -0.042155  3.248166
H    -0.661117  -2.739699  1.772081
H    -1.593914  -2.330372  3.193182
H    0.111084  -2.971116  4.579284
H    1.241956  -1.883379  3.813798
H    0.519057  -4.667599  2.753007
H    1.925963  -4.307171  3.765977
H    2.308892  -4.339026  1.292393
H    2.753871  -2.923526  1.976438
O    2.986000  -0.218468  1.424115
H    2.577646  -0.564730  0.572733
