  MPI-parallelism will be employed.
------------------------------------------------------------
          Invoking FHI-aims ...
          Version 081213
          Git rev. (modified): ea1ccc2 Simplified regression tests to avoid sendi[...]
          Compiled on 2013/08/13 at 17:23:57 on host hp83-ekl-12.ictp.it.

          When using FHI-aims, please cite the following reference:

          Volker Blum, Ralf Gehrke, Felix Hanke, Paula Havu,
          Ville Havu, Xinguo Ren, Karsten Reuter, and Matthias Scheffler,
          'Ab Initio Molecular Simulations with Numeric Atom-Centered Orbitals: FHI-aims',
          Computer Physics Communications 180, 2175-2196 (2009)

          For any questions about FHI-aims, please visit the aimsclub website
          with its forums and wiki. Contributions to both the forums and the
          wiki are warmly encouraged - they are for you, and everyone is welcome there.

------------------------------------------------------------

  Date     :  20130814, Time     :  120517.863
  Time zero on CPU 1             :   0.160010000000000E-01  s.
  Internal wall clock time zero  :           145713917.863  s.

  Using        4 parallel tasks.
  Task        0 on host hp83-ekl-12.ictp.it reporting.
  Task        1 on host hp83-ekl-12.ictp.it reporting.
  Task        2 on host hp83-ekl-12.ictp.it reporting.
  Task        3 on host hp83-ekl-12.ictp.it reporting.

  Performing system and environment tests:
  | Environment variable OMP_NUM_THREADS correctly set to 1.
  | Checking for scalapack...
  | Testing pdtran()...
  | All pdtran() tests passed.

  Obtaining array dimensions for all initial allocations:
  
  -----------------------------------------------------------------------
  Parsing control.in (first pass over file, find array dimensions only).
  The contents of control.in will be repeated verbatim below
  unless switched off by setting 'verbatim_writeout .false.' .
  in the first line of control.in .
  -----------------------------------------------------------------------
  
  #########################################################################################
  #
  #  Volker Blum, FHI 2009 : Test run input file control.in for Au_2
  #
  #########################################################################################
  #
  #  Physical model
  #
    xc                 pw-lda
    spin               none
    relativistic       atomic_zora scalar
    charge             0.
  #
  #  SCF convergence
  #
    occupation_type    gaussian 0.01
    mixer              pulay
      n_max_pulay        10
      charge_mix_param   0.5
    sc_accuracy_rho    1E-5
    sc_accuracy_eev    1E-3
    sc_accuracy_etot   1E-6
    sc_accuracy_forces 1E-4
    sc_iter_limit      100
  #
  #  Relaxation
  #
    relax_geometry   bfgs 1.e-2
  #
  
  ################################################################################
  #
  #  FHI-aims code project
  #  VB, Fritz-Haber Institut, 2009
  #
  #  Suggested "light" defaults for Au atom (to be pasted into control.in file)
  #  Be sure to double-check any results obtained with these settings for post-processing,
  #  e.g., with the "tight" defaults and larger basis sets.
  #
  ################################################################################
    species        Au
  #     global species definitions
      nucleus             79
      mass                196.966569
  #
      l_hartree           4
  #
      cut_pot             3.5  1.5  1.0
      basis_dep_cutoff    1e-4
  #
      radial_base         73 5.0
      radial_multiplier   1
      angular_grids specified
        division   0.5066   50
        division   0.9861  110
        division   1.2821  194
        division   1.5344  302
  #      division   2.0427  434
  #      division   2.1690  590
  #      division   2.2710  770
  #      division   2.3066  974
  #      division   2.7597 1202
  #      outer_grid 974
        outer_grid 302
  ################################################################################
  #
  #  Definition of "minimal" basis
  #
  ################################################################################
  #     valence basis states
      valence      6  s   1.
      valence      5  p   6.
      valence      5  d  10.
      valence      4  f  14.
  #     ion occupancy
      ion_occ     6  s   0.
      ion_occ     5  p   6.
      ion_occ     5  d   9.
      ion_occ     4  f   14.
  ################################################################################
  #
  #  Suggested additional basis functions. For production calculations,
  #  uncomment them one after another (the most important basis functions are
  #  listed first).
  #
  #  Constructed for dimers: 2.10, 2.45, 3.00, 4.00 AA
  #
  ################################################################################
  #  "First tier" - max. impr. -161.60  meV, min. impr. -4.53 meV
       ionic 6 p auto
       hydro 4 f 7.4
       ionic 6 s auto
  #     hydro 5 g 10
  #     hydro 6 h 12.8
       hydro 3 d 2.5
  #  "Second tier" - max. impr. -2.46  meV, min. impr. -0.28 meV
  #     hydro 5 f 14.8
  #     hydro 4 d 3.9
  #     hydro 3 p 3.3
  #     hydro 1 s 0.45
  #     hydro 5 g 16.4
  #     hydro 6 h 13.6
  #  "Third tier" - max. impr. -0.49  meV, min. impr. -0.09 meV
  #     hydro 4 f 5.2
  #     hydro 4 d 5
  #     hydro 5 g 8
  #     hydro 5 p 8.2
  #     hydro 6 d 12.4
  #     hydro 6 s 14.8
  #  Further basis functions: -0.08 meV and below
  #     hydro 5 f 18.8
  #     hydro 5 g 20
  #    hydro 5 g 15.2
  
  -----------------------------------------------------------------------
  Completed first pass over input file control.in .
  -----------------------------------------------------------------------
  
  
  -----------------------------------------------------------------------
  Parsing geometry.in (first pass over file, find array dimensions only).
  The contents of geometry.in will be repeated verbatim below
  unless switched off by setting 'verbatim_writeout .false.' .
  in the first line of geometry.in .
  -----------------------------------------------------------------------
  
  atom     0.0   0.0   0.0  Au
  atom     0.0   0.0   3.0  Au
  
  -----------------------------------------------------------------------
  Completed first pass over input file geometry.in .
  -----------------------------------------------------------------------
  
 
  Basic array size parameters: 
  | Number of species                 :        1
  | Number of atoms                   :        2
  | Max. basis fn. angular momentum   :        3
  | Max. atomic/ionic basis occupied n:        6
  | Max. number of basis fn. types    :        3
  | Max. radial fns per species/type  :       14
  | Max. logarithmic grid size        :     1488
  | Max. radial integration grid size :       73
  | Max. angular integration grid size:      302
  | Max. angular grid division number :        8
  | Radial grid for Hartree potential :     1488
  | Number of spin channels           :        1

------------------------------------------------------------
          Reading file control.in.
------------------------------------------------------------
  XC: Using Perdew-Wang parametrisation of Ceperley-Alder LDA.
  Spin treatment: No spin polarisation.
  Scalar relativistic treatment of kinetic energy: on-site free-atom approximation to ZORA.
  Charge =   0.000000E+00: Neutral system requested explicitly.
  Occupation type: Gaussian broadening, width =   0.100000E-01 eV.
  Using pulay charge density mixing.
  Pulay mixing - number of memorized iterations:   10
  Charge density mixing - mixing parameter:     0.5000
  Convergence accuracy of self-consistent charge density: 0.1000E-04
  Convergence accuracy of sum of eigenvalues: 0.1000E-02
  Convergence accuracy of total energy: 0.1000E-05
  Convergence accuracy of forces: 0.1000E-03
  Maximum number of s.-c. iterations  :   100
  Geometry relaxation: Modified BFGS - TRM (trust radius method, i.e., trusted quadratic extrapolation).
  Convergence accuracy for geometry relaxation: Maximum force <   0.100000E-01 eV/A.
 
  Reading configuration options for species Au                  .
  | Found nuclear charge :  79.0000
  | Found atomic mass :    196.966569000000      amu
  | Found l_max for Hartree potential  :   4
  | Found cutoff potl. onset [A], width [A], scale factor :    3.50000    1.50000    1.00000
  | Threshold for basis-dependent cutoff potential is   0.100000E-03
  | Found data for basic radial integration grid :    73 points, outermost radius =    5.000 A
  | Found multiplier for basic radial grid :   1
  | Found angular grid specification: user-specified.
  | Specified grid contains     5 separate shells.
  | Check grid settings after all constraints further below.
  | Found free-atom valence shell :  6 s   1.000
  | Found free-atom valence shell :  5 p   6.000
  | Found free-atom valence shell :  5 d  10.000
  | Found free-atom valence shell :  4 f  14.000
  | Found free-ion valence shell :  6 s   0.000
  | Found free-ion valence shell :  5 p   6.000
  | Found free-ion valence shell :  5 d   9.000
  | Found free-ion valence shell :  4 f  14.000
  | Found ionic basis function :  6 p , default cutoff radius.
  | Found hydrogenic basis function :  4 f   7.400
  | Found ionic basis function :  6 s , default cutoff radius.
  | Found hydrogenic basis function :  3 d   2.500
  Species Au                  : Missing cutoff potential type.
  Defaulting to exp(1/x)/(1-x)^2 type cutoff potential.
  Species Au: No 'logarithmic' tag. Using default grid for free atom:
  | Default logarithmic grid data [bohr] : 0.1000E-03 0.1000E+03 0.1012E+01
  | Will include ionic basis functions of  2.0-fold positive Au                   ion.
  Species Au: On-site basis accuracy parameter (for Gram-Schmidt orthonormalisation) not specified.
  Using default value basis_acc =  0.1000000E-03.
  Species Au                  : Using default innermost maximum threshold i_radial=  2 for radial functions.
  Species Au                  : Default cutoff onset for free atom density etc. : 0.35000000E+01 AA.
  Species Au                  : Basic radial grid will be enhanced according to radial_multiplier =   1, to contain    73 grid points.
 
  Finished reading input file 'control.in'. Consistency checks are next.
 
  Target number of points in a grid batch is not set. Defaulting to  100
  Method for grid partitioning is not set. Defaulting to parallel hash+maxmin partitioning.
  Batch size limit is not set. Defaulting to    200
  By default, will store active basis functions for each batch.
  If in need of memory, prune_basis_once .false. can be used to disable this option.
  communication_type for Hartree potential was not specified.
  Defaulting to calc_hartree .
  Pulay mixer: Number of initial linear mixing iterations not set.
  Defaulting to    0 iterations.
  Work space size for distributed Hartree potential not set.
  Defaulting to   0.200000E+03 MB.
  Algorithm-dependent basis array size parameters:
  | n_max_pulay                         :       10
  No maximum number of relaxation steps, defaulting to     1000
  Default initial Hessian is Lindh matrix (thres = 15.00) plus  0.200000E+01 eV/A^2 times unity.
  No maximum energy tolerance for TRM/BFGS moves, defaulting to   0.200000E-03
  No harmonic length scale. Defaulting to   0.250000E-01 A.
  No trust radius initializer. Defaulting to   0.200000E+00 A.
  Handling of forces: Unphysical translation and rotation will be removed from forces.
  No accuracy limit for integral partition fn. given. Defaulting to 0.1000E-14.
  No threshold value for u(r) in integrations given. Defaulting to 0.1000E-05.
  No accuracy for occupation numbers given. Defaulting to 0.1000E-07.
  No threshold value for occupation numbers given. Defaulting to 0.0000E+00.
  No accuracy for fermi level given. Defaulting to 0.1000E-19.
  Maximum # of iterations to find E_F not set. Defaulting to  200.
  Preferred method for the eigenvalue solver ('KS_method') not specified in 'control.in'.
  Calling blacs routine to test compilation state
  Since scalapack support is enabled, defaulting to 'elpa'.
  Will not use alltoall communication since running on < 1024 CPUs.
  Threshold for basis singularities not set.
  Default threshold for basis singularities: 0.1000E-04
  partition_type (choice of integration weights) for integrals was not specified.
  | Using a version of the partition function of Stratmann and coworkers ('stratmann_smoother').
  | At each grid point, the set of atoms used to build the partition table is smoothly restricted to
  | only those atoms whose free-atom density would be non-zero at that grid point.
  Partitioning for Hartree potential was not defined. Using partition_type for integrals.
  | Adjusted default value of keyword multip_moments_threshold to:       0.10000000E-11
  | This value may affect high angular momentum components of the Hartree potential in periodic systems.
  No q(lm)/r^(l+1) cutoff set for long-range Hartree potential.
  | Using default value of  0.100000E-09 .
  | Verify using the multipole_threshold keyword.
  Defaulting to new monopole extrapolation.
  Density update method: automatic selection selected.
  Geometry relaxation: A file "geometry.in.next_step" is written out by default after each step.
  | This file contains the geometry of the current relaxation step as well as
  | the current Hessian matrix needed to restart the relaxation algorithm.
  | If you do not want part or all of this information, use the keywords
  | "write_restart_geometry" or "hessian_to_restart_geometry" to switch the output off.
------------------------------------------------------------


------------------------------------------------------------
          Reading geometry description geometry.in.
------------------------------------------------------------
  Input structure read successfully.
  The structure contains        2 atoms,  and a total of        158.000 electrons.

  Input geometry:
  | No unit cell requested.
  | Atomic structure:
  |       Atom                x [A]            y [A]            z [A]
  |    1: Species Au             0.000000         0.000000         0.000000
  |    2: Species Au             0.000000         0.000000         3.000000
  |

  | The smallest distance between any two atoms is         3.00000000 AA.
  |
  | The first atom of this pair is atom number                      1 .
  | The second atom of this pair is atom number                     2 .

  Number of empty states per atom not set in control.in - providing a guess from actual geometry.
  | Total number of empty states used during s.c.f. cycle:       18
  If you use a very high smearing, use empty_states (per atom!) in control.in to increase this value.

  Structure-dependent array size parameters: 
  | Maximum number of distinct radial functions  :       18
  | Maximum number of basis functions            :      112
  | Number of Kohn-Sham states (occupied + empty):       97
------------------------------------------------------------

------------------------------------------------------------
          Preparing all fixed parts of the calculation.
------------------------------------------------------------
  Determining machine precision:
    2.225073858507201E-308
  Setting up grids for atomic and cluster calculations.

  Creating wave function, potential, and density for free atoms.

  Species: Au

  List of occupied orbitals and eigenvalues:
    n    l              occ      energy [Ha]    energy [eV]
    1    0           2.0000     -3253.501165    -88532.2712
    2    0           2.0000      -533.270055    -14511.0165
    3    0           2.0000      -124.130958     -3377.7752
    4    0           2.0000       -26.797942      -729.2091
    5    0           2.0000        -3.989734      -108.5662
    6    0           1.0000        -0.219521        -5.9735
    2    1           6.0000      -460.270091    -12524.5864
    3    1           6.0000      -103.425619     -2814.3543
    4    1           6.0000       -20.052147      -545.6467
    5    1           6.0000        -2.200500       -59.8786
    3    2          10.0000       -81.375479     -2214.3395
    4    2          10.0000       -11.974536      -325.8437
    5    2          10.0000        -0.258353        -7.0301
    4    3          14.0000        -3.003011       -81.7161

  Creating fixed part of basis set: Ionic, confined, hydrogenic.
 
  Au                   ion:

  List of free ionic orbitals and eigenvalues:
    n    l      energy [Ha]    energy [eV]
    1    0     -3254.377409    -88556.1150
    2    0      -534.086180    -14533.2244
    3    0      -124.937984     -3399.7355
    4    0       -27.602784      -751.1100
    5    0        -4.790082      -130.3448
    2    1      -461.084679    -12546.7525
    3    1      -104.232198     -2836.3024
    4    1       -20.856809      -567.5427
    5    1        -2.996012       -81.5256
    3    2       -82.181550     -2236.2738
    4    2       -12.778936      -347.7325
    5    2        -1.015310       -27.6280
    4    3        -3.806916      -103.5915


  List of ionic basis orbitals and eigenvalues:
    n    l      energy [Ha]    energy [eV]    outer radius [A]
    6    1        -0.542968       -14.7749       4.560053
    6    0        -0.850591       -23.1458       4.504645

 
  Au                   hydrogenic:
 
  List of hydrogenic basis orbitals: 
    n    l      effective z      eigenvalue [eV]  inner max. [A]     outer max. [A]     outer radius [A]   
    4    3         7.400000       -46.5648           1.145580           1.145580           4.504645
    3    2         2.500000        -9.0892           1.822958           1.822958           4.616141
 

  Adding cutoff potential to free-atom effective potential.
  Creating atomic-like basis functions for current effective potential.

  Species Au                  :

  List of atomic basis orbitals and eigenvalues:
    n    l      energy [Ha]    energy [eV]    outer radius [A]
    1    0     -3253.501165    -88532.2712       0.120816
    2    0      -533.270055    -14511.0165       0.313506
    3    0      -124.130958     -3377.7752       0.660860
    4    0       -26.797942      -729.2091       1.376144
    5    0        -3.989734      -108.5662       3.318406
    6    0        -0.219521        -5.9735       4.560053
    2    1      -460.270091    -12524.5864       0.329217
    3    1      -103.425619     -2814.3543       0.702515
    4    1       -20.052147      -545.6467       1.536198
    5    1        -2.200500       -59.8786       4.035315
    3    2       -81.375479     -2214.3395       0.755981
    4    2       -11.974536      -325.8437       1.868078
    5    2        -0.258353        -7.0301       4.504645
    4    3        -3.003011       -81.7161       3.160040

  Assembling full basis from fixed parts.
  | Species Au :   atomic orbital   1 s accepted.
  | Species Au :   atomic orbital   2 s accepted.
  | Species Au :   atomic orbital   3 s accepted.
  | Species Au :   atomic orbital   4 s accepted.
  | Species Au :   atomic orbital   5 s accepted.
  | Species Au :    ionic orbital   6 s accepted.
  | Species Au :   atomic orbital   6 s accepted.
  | Species Au :   atomic orbital   2 p accepted.
  | Species Au :   atomic orbital   3 p accepted.
  | Species Au :   atomic orbital   4 p accepted.
  | Species Au :   atomic orbital   5 p accepted.
  | Species Au :    ionic orbital   6 p accepted.
  | Species Au :   atomic orbital   3 d accepted.
  | Species Au :   atomic orbital   4 d accepted.
  | Species Au :   atomic orbital   5 d accepted.
  | Species Au :    hydro orbital   3 d accepted.
  | Species Au :   atomic orbital   4 f accepted.
  | Species Au :    hydro orbital   4 f accepted.
 
  Basis size parameters after reduction:
  | Total number of radial functions:       18
  | Total number of basis functions :      112
 
  Testing on-site integration grid accuracy.
  |  Species  Function  <phi|h_atom|phi> (log., in eV)  <phi|h_atom|phi> (rad., in eV)
           1        1             -88532.2711830860             -88531.9398390365 ***
           1        2             -14511.0165084552             -14511.0101455216
           1        3              -3377.7752319069              -3377.7748863373
           1        4               -729.2090996991               -729.2090733130
           1        5               -108.5661968367               -108.5661932910
           1        6                 -5.3855913612                 -5.3856998606
           1        7                  6.2266244886                  6.1992215682
           1        8             -12524.5864306426             -12524.5864216363
           1        9              -2814.3542956521              -2814.3542801311
           1       10               -545.6466867315               -545.6466809546
           1       11                -59.8786391400                -59.8786374004
           1       12                  0.7245319193                  0.7225851611
           1       13              -2214.3394591899              -2214.3394539287
           1       14               -325.8437143073               -325.8437117931
           1       15                 -7.0304648770                 -7.0305588780
           1       16                  6.6988350376                  6.6747734543
           1       17                -81.7160863490                -81.7160858065
           1       18                 21.3702397256                 21.3702228770
 * Note: Onsite integrals marked "***" above are less accurate than
 * onsite_accuracy_threshold =    0.03000 eV. Usually, this is harmless.
 * However, one integral did have a negative value. This integral could be important.
 * When in doubt, tighten the "radial" and/or "radial_multiplier" flags to check.

  Preparing densities etc. for the partition functions (integrals / Hartree potential).

  Preparations completed.
  max(cpu_time)          :      0.268 s.
  Wall clock time (cpu1) :      0.477 s.
------------------------------------------------------------

------------------------------------------------------------
          Begin self-consistency loop: Initialization.

          Date     :  20130814, Time     :  120518.383
------------------------------------------------------------

  Initializing index lists of integration centers etc. from given atomic structure:
  | Number of centers in hartree potential         :         2
  | Number of centers in hartree multipole         :         2
  | Number of centers in electron density summation:         2
  | Number of centers in basis integrals           :         2
  | Number of centers in integrals                 :         2
  Initializing relaxation algorithms.
  Using modified Scalapack Eigenvalue solver (ELPA)
  * Using 4 tasks for Scalapack Eigenvalue solver.
  Detailed listing of tasks and assigned k-points:
  (for non-periodic systems, the "k-point" denotes an internal label only)
   Task     0 k-point     1 on hp83-ekl-12.ictp.it
   Task     1 k-point     1 on hp83-ekl-12.ictp.it
   Task     2 k-point     1 on hp83-ekl-12.ictp.it
   Task     3 k-point     1 on hp83-ekl-12.ictp.it
  Tasks:     4 split into      2 X      2 BLACS grid
  Calculating blocksize based on n_basis =          112 max_nprow =            2 max_npcol =            2
  Scalapack blocksize set to:           16
  Required Scalapack workspace - INTEGER:            1 REAL:             1
  Partitioning the integration grid into batches with parallel hashing+maxmin method.
  | Number of batches:      240
  | Maximal batch size:     158
  | Minimal batch size:      62
  | Average batch size:      76.017
  | Standard deviation of batch sizes:      16.662

  Integration load balanced across     4 MPI tasks.
  Work distribution over tasks is as follows:
  Task     0 has       4627 integration points.
  Task     1 has       4592 integration points.
  Task     2 has       4501 integration points.
  Task     3 has       4524 integration points.
  Initializing partition tables, free-atom densities, potentials, etc. across the integration grid (initialize_grid_storage).
  | initialize_grid_storage: Actual outermost partition radius vs. multipole_radius_free
  | (-- VB: in principle, multipole_radius_free should be larger, hence this output)
  | Species        1: outer_partition_radius =              4.999999999999999 AA, multipole_radius_free =              5.028561921230412 AA.
  | Original list of interatomic distances with           2 x          2 entries is created.
  | Net number of integration points:    18244
  | of which are non-zero points    :    18040
  Obtaining max. number of non-zero basis functions in each batch (get_n_compute_maxes).
  | Maximal number of non-zero basis functions:       93 in task     0
  | Maximal number of non-zero basis functions:       93 in task     1
  | Maximal number of non-zero basis functions:       93 in task     2
  | Maximal number of non-zero basis functions:       93 in task     3
  Selecting the method for density update.
  Loop over occupied states selected for charge density update.
  Integrating Hamiltonian matrix: batch-based integration.
  Time summed over all CPUs for integration: real work        0.053 s, elapsed        0.066 s
  Integrating overlap matrix.
  Time summed over all CPUs for integration: real work        0.036 s, elapsed        0.045 s
  Deallocating overlap matrix.

  Updating Kohn-Sham eigenvalues, eigenvectors, occupation numbers, and Fermi level.
  Solving generalized eigenproblem
  Solving real symmetric generalised eigenvalue problem by standard ScaLAPACK.
  Transforming overlap matrix with ScaLAPACK and checking for singularities.
  : Overlap matrix is nonsingular, using Cholesky decomposition
  | Lowest eigenvalue:  0.700361E-01
  Factoring overlap matrix with Cholesky decomposition
  Using Cholesky factor for transformation
  Using 1-stage real ELPA solver
  Determining occupation numbers for Kohn-Sham eigenstates.
  | Chemical potential (Fermi level) in eV                 : -.55051073E+01
  | Error in electron count due to remaining E_F inaccuracy: 0.00000000E+00
  | Maximum occupation number of highest empty state:  0.00E+00

  Writing Kohn-Sham eigenvalues.

  State    Occupation    Eigenvalue [Ha]    Eigenvalue [eV]
      1       2.00000       -3253.501387       -88532.27721
      2       2.00000       -3253.501387       -88532.27721
      3       2.00000        -533.270278       -14511.02257
      4       2.00000        -533.270278       -14511.02257
      5       2.00000        -460.270315       -12524.59251
      6       2.00000        -460.270315       -12524.59251
      7       2.00000        -460.270314       -12524.59248
      8       2.00000        -460.270314       -12524.59248
      9       2.00000        -460.270314       -12524.59248
     10       2.00000        -460.270314       -12524.59248
     11       2.00000        -124.131187        -3377.78146
     12       2.00000        -124.131187        -3377.78146
     13       2.00000        -103.425856        -2814.36072
     14       2.00000        -103.425856        -2814.36072
     15       2.00000        -103.425845        -2814.36043
     16       2.00000        -103.425845        -2814.36043
     17       2.00000        -103.425845        -2814.36043
     18       2.00000        -103.425845        -2814.36043
     19       2.00000         -81.375712        -2214.34578
     20       2.00000         -81.375712        -2214.34578
     21       2.00000         -81.375710        -2214.34572
     22       2.00000         -81.375710        -2214.34572
     23       2.00000         -81.375710        -2214.34572
     24       2.00000         -81.375710        -2214.34572
     25       2.00000         -81.375703        -2214.34555
     26       2.00000         -81.375703        -2214.34555
     27       2.00000         -81.375703        -2214.34555
     28       2.00000         -81.375703        -2214.34555
     29       2.00000         -26.798200         -729.21612
     30       2.00000         -26.798200         -729.21612
     31       2.00000         -20.052452         -545.65497
     32       2.00000         -20.052452         -545.65497
     33       2.00000         -20.052391         -545.65331
     34       2.00000         -20.052391         -545.65331
     35       2.00000         -20.052391         -545.65331
     36       2.00000         -20.052391         -545.65331
     37       2.00000         -11.974842         -325.85204
     38       2.00000         -11.974842         -325.85204
     39       2.00000         -11.974822         -325.85149
     40       2.00000         -11.974822         -325.85149
     41       2.00000         -11.974822         -325.85149
     42       2.00000         -11.974822         -325.85149
     43       2.00000         -11.974773         -325.85017
     44       2.00000         -11.974773         -325.85017
     45       2.00000         -11.974773         -325.85017
     46       2.00000         -11.974773         -325.85017
     47       2.00000          -3.990214         -108.57925
     48       2.00000          -3.990174         -108.57815
     49       2.00000          -3.003345          -81.72517
     50       2.00000          -3.003337          -81.72497
     51       2.00000          -3.003329          -81.72474
     52       2.00000          -3.003329          -81.72474
     53       2.00000          -3.003326          -81.72466
     54       2.00000          -3.003326          -81.72466
     55       2.00000          -3.003293          -81.72376
     56       2.00000          -3.003293          -81.72376
     57       2.00000          -3.003293          -81.72375
     58       2.00000          -3.003293          -81.72375
     59       2.00000          -3.003246          -81.72247
     60       2.00000          -3.003246          -81.72247
     61       2.00000          -3.003246          -81.72247
     62       2.00000          -3.003246          -81.72247
     63       2.00000          -2.202192          -59.92469
     64       2.00000          -2.200948          -59.89084
     65       2.00000          -2.200948          -59.89084
     66       2.00000          -2.200836          -59.88780
     67       2.00000          -2.200836          -59.88780
     68       2.00000          -2.200809          -59.88707
     69       2.00000          -0.298023           -8.10961
     70       2.00000          -0.273098           -7.43137
     71       2.00000          -0.273098           -7.43137
     72       2.00000          -0.261168           -7.10675
     73       2.00000          -0.261167           -7.10673
     74       2.00000          -0.256816           -6.98833
     75       2.00000          -0.256816           -6.98832
     76       2.00000          -0.248632           -6.76561
     77       2.00000          -0.248632           -6.76561
     78       2.00000          -0.247110           -6.72422
     79       2.00000          -0.245309           -6.67519
     80       0.00000          -0.180829           -4.92060
     81       0.00000          -0.015324           -0.41699
     82       0.00000          -0.006753           -0.18377
     83       0.00000          -0.006753           -0.18377
     84       0.00000           0.054610            1.48600
     85       0.00000           0.054610            1.48600
     86       0.00000           0.139236            3.78880
     87       0.00000           0.212403            5.77977
     88       0.00000           0.213473            5.80890
     89       0.00000           0.213588            5.81202
     90       0.00000           0.244278            6.64715
     91       0.00000           0.244278            6.64715
     92       0.00000           0.282653            7.69139
     93       0.00000           0.282710            7.69292
     94       0.00000           0.286597            7.79871
     95       0.00000           0.355934            9.68545
     96       0.00000           0.364270            9.91229
     97       0.00000           0.364270            9.91229

  Highest occupied state (VBM) at     -6.67518824 eV
  | Occupation number:      2.00000000

  Lowest unoccupied state (CBM) at    -4.92060103 eV
  | Occupation number:      0.00000000

  Overall HOMO-LUMO gap:      1.75458721 eV.
  Calculating total energy contributions from superposition of free atom densities.

  Total energy components:
  | Sum of eigenvalues            :      -24755.00331341 Ha     -673617.91345995 eV
  | XC energy correction          :        -713.28553479 Ha      -19409.48694540 eV
  | XC potential correction       :         946.97912618 Ha       25768.61311595 eV
  | Free-atom electrostatic energy:      -14824.71448194 Ha     -403401.00587071 eV
  | Hartree energy correction     :           0.00000000 Ha           0.00000000 eV
  | Entropy correction            :           0.00000000 Ha           0.00000000 eV
  | ---------------------------
  | Total energy                  :      -39346.02420395 Ha    -1070659.79316011 eV
  | Total energy, T -> 0          :      -39346.02420395 Ha    -1070659.79316011 eV  <-- do not rely on this value for anything but (periodic) metals
  | Electronic free energy        :      -39346.02420395 Ha    -1070659.79316011 eV

  Derived energy quantities:
  | Kinetic energy                :       44141.02190201 Ha     1201138.31919839 eV
  | Electrostatic energy          :      -82773.76057117 Ha    -2252388.62541311 eV
  | Energy correction for multipole
  | error in Hartree potential    :           0.00000000 Ha           0.00000000 eV
  | Sum of eigenvalues per atom                           :     -336808.95672998 eV
  | Total energy (T->0) per atom                          :     -535329.89658006 eV  <-- do not rely on this value for anything but (periodic) metals
  | Electronic free energy per atom                       :     -535329.89658006 eV
  Initialize hartree_potential_storage
  Max. number of atoms included in rho_multipole:            2

  End scf initialization - timings             :  max(cpu_time)    wall_clock(cpu1)
  | Time for scf. initialization               :        0.116 s           0.160 s
  | Boundary condition initialization          :        0.000 s           0.000 s
  | Relaxation initialization                  :        0.000 s           0.000 s
  | Integration                                :        0.028 s           0.028 s
  | Solution of K.-S. eqns.                    :        0.064 s           0.079 s
  | Grid partitioning                          :        0.012 s           0.040 s
  | Preloading free-atom quantities on grid    :        0.004 s           0.002 s
  | Free-atom superposition energy             :        0.004 s           0.002 s
  | Total energy evaluation                    :        0.000 s           0.000 s
------------------------------------------------------------

------------------------------------------------------------
          Begin self-consistency iteration #    1

  Date     :  20130814, Time     :  120518.543
------------------------------------------------------------
  Evaluating new KS density.
  Integration grid: deviation in total charge (<rho> - N_e) =  -1.136868E-13
  Pulay mixing of updated and previous charge densities.

  Evaluating partitioned Hartree potential by multipole expansion.
  | Analytical far-field extrapolation by fixed multipoles:
  | Hartree multipole sum: apparent total charge =  -0.312929E-04
  Summing up the Hartree potential.
  Time summed over all CPUs for potential: real work        0.016 s, elapsed        0.016 s
  | RMS charge density error from multipole expansion :   0.126779E-02

  Integrating Hamiltonian matrix: batch-based integration.
  Time summed over all CPUs for integration: real work        0.040 s, elapsed        0.041 s

  Updating Kohn-Sham eigenvalues, eigenvectors, occupation numbers, and Fermi level.
  Solving generalized eigenproblem
  Solving real symmetric generalised eigenvalue problem by standard ScaLAPACK.
  Using Cholesky factor for transformation
  Using 1-stage real ELPA solver
  Determining occupation numbers for Kohn-Sham eigenstates.
  | Chemical potential (Fermi level) in eV                 : -.54929862E+01
  | Error in electron count due to remaining E_F inaccuracy: 0.00000000E+00
  | Maximum occupation number of highest empty state:  0.00E+00

  Writing Kohn-Sham eigenvalues.

  State    Occupation    Eigenvalue [Ha]    Eigenvalue [eV]
      1       2.00000       -3253.523988       -88532.89222
      2       2.00000       -3253.523988       -88532.89222
      3       2.00000        -533.292759       -14511.63433
      4       2.00000        -533.292759       -14511.63433
      5       2.00000        -460.292885       -12525.20669
      6       2.00000        -460.292885       -12525.20669
      7       2.00000        -460.292885       -12525.20669
      8       2.00000        -460.292885       -12525.20669
      9       2.00000        -460.292817       -12525.20484
     10       2.00000        -460.292817       -12525.20484
     11       2.00000        -124.152051        -3378.34921
     12       2.00000        -124.152051        -3378.34921
     13       2.00000        -103.446999        -2814.93605
     14       2.00000        -103.446999        -2814.93605
     15       2.00000        -103.446999        -2814.93605
     16       2.00000        -103.446999        -2814.93605
     17       2.00000        -103.446101        -2814.91163
     18       2.00000        -103.446101        -2814.91163
     19       2.00000         -81.397232        -2214.93136
     20       2.00000         -81.397232        -2214.93136
     21       2.00000         -81.397231        -2214.93136
     22       2.00000         -81.397231        -2214.93136
     23       2.00000         -81.396583        -2214.91370
     24       2.00000         -81.396583        -2214.91370
     25       2.00000         -81.396583        -2214.91370
     26       2.00000         -81.396583        -2214.91370
     27       2.00000         -81.396483        -2214.91101
     28       2.00000         -81.396483        -2214.91101
     29       2.00000         -26.816667         -729.71863
     30       2.00000         -26.816667         -729.71863
     31       2.00000         -20.070689         -546.15123
     32       2.00000         -20.070689         -546.15123
     33       2.00000         -20.070689         -546.15123
     34       2.00000         -20.070689         -546.15123
     35       2.00000         -20.070471         -546.14530
     36       2.00000         -20.070471         -546.14530
     37       2.00000         -11.992982         -326.34566
     38       2.00000         -11.992982         -326.34565
     39       2.00000         -11.992816         -326.34112
     40       2.00000         -11.992816         -326.34112
     41       2.00000         -11.992816         -326.34112
     42       2.00000         -11.992816         -326.34112
     43       2.00000         -11.992667         -326.33707
     44       2.00000         -11.992667         -326.33707
     45       2.00000         -11.992667         -326.33707
     46       2.00000         -11.992667         -326.33707
     47       2.00000          -4.003394         -108.93790
     48       2.00000          -4.003356         -108.93687
     49       2.00000          -3.021184          -82.21059
     50       2.00000          -3.021177          -82.21040
     51       2.00000          -3.021020          -82.20614
     52       2.00000          -3.021020          -82.20614
     53       2.00000          -3.021018          -82.20608
     54       2.00000          -3.021018          -82.20608
     55       2.00000          -3.020698          -82.19738
     56       2.00000          -3.020698          -82.19738
     57       2.00000          -3.020698          -82.19737
     58       2.00000          -3.020698          -82.19737
     59       2.00000          -3.020684          -82.19698
     60       2.00000          -3.020684          -82.19698
     61       2.00000          -3.020684          -82.19698
     62       2.00000          -3.020684          -82.19698
     63       2.00000          -2.217389          -60.33823
     64       2.00000          -2.216100          -60.30314
     65       2.00000          -2.210189          -60.14231
     66       2.00000          -2.210189          -60.14231
     67       2.00000          -2.210085          -60.13948
     68       2.00000          -2.210085          -60.13948
     69       2.00000          -0.301174           -8.19536
     70       2.00000          -0.278226           -7.57092
     71       2.00000          -0.278226           -7.57092
     72       2.00000          -0.263046           -7.15784
     73       2.00000          -0.263045           -7.15782
     74       2.00000          -0.259129           -7.05125
     75       2.00000          -0.259128           -7.05124
     76       2.00000          -0.256923           -6.99123
     77       2.00000          -0.256923           -6.99123
     78       2.00000          -0.255132           -6.94250
     79       2.00000          -0.241430           -6.56965
     80       0.00000          -0.188868           -5.13935
     81       0.00000          -0.019953           -0.54296
     82       0.00000          -0.001156           -0.03146
     83       0.00000          -0.001156           -0.03146
     84       0.00000           0.055549            1.51157
     85       0.00000           0.055549            1.51157
     86       0.00000           0.136876            3.72457
     87       0.00000           0.216265            5.88486
     88       0.00000           0.218512            5.94603
     89       0.00000           0.218628            5.94916
     90       0.00000           0.244931            6.66492
     91       0.00000           0.244931            6.66492
     92       0.00000           0.284630            7.74519
     93       0.00000           0.284687            7.74672
     94       0.00000           0.286011            7.78275
     95       0.00000           0.353059            9.60723
     96       0.00000           0.364719            9.92452
     97       0.00000           0.364719            9.92452

  Highest occupied state (VBM) at     -6.56965332 eV
  | Occupation number:      2.00000000

  Lowest unoccupied state (CBM) at    -5.13935316 eV
  | Occupation number:      0.00000000

  Overall HOMO-LUMO gap:      1.43030016 eV.

  Total energy components:
  | Sum of eigenvalues            :      -24757.62650348 Ha     -673689.29409365 eV
  | XC energy correction          :        -713.20191526 Ha      -19407.21154225 eV
  | XC potential correction       :         946.86846679 Ha       25765.60192088 eV
  | Free-atom electrostatic energy:      -14824.71448194 Ha     -403401.00587071 eV
  | Hartree energy correction     :           2.65758374 Ha          72.31653310 eV
  | Entropy correction            :           0.00000000 Ha           0.00000000 eV
  | ---------------------------
  | Total energy                  :      -39346.01685014 Ha    -1070659.59305263 eV
  | Total energy, T -> 0          :      -39346.01685014 Ha    -1070659.59305263 eV  <-- do not rely on this value for anything but (periodic) metals
  | Electronic free energy        :      -39346.01685014 Ha    -1070659.59305263 eV

  Derived energy quantities:
  | Kinetic energy                :       44140.08466444 Ha     1201112.81566669 eV
  | Electrostatic energy          :      -82772.89959932 Ha    -2252365.19717707 eV
  | Energy correction for multipole
  | error in Hartree potential    :          -0.00025806 Ha          -0.00702229 eV
  | Sum of eigenvalues per atom                           :     -336844.64704682 eV
  | Total energy (T->0) per atom                          :     -535329.79652631 eV  <-- do not rely on this value for anything but (periodic) metals
  | Electronic free energy per atom                       :     -535329.79652631 eV

  Self-consistency convergence accuracy:
  | Change of charge density      : 0.8939E-01
  | Change of sum of eigenvalues  : -.7138E+02 eV
  | Change of total energy        : 0.2001E+00 eV

  End self-consistency iteration #     1       :  max(cpu_time)    wall_clock(cpu1)
  | Time for this iteration                    :        0.028 s           0.026 s
  | Charge density update                      :        0.008 s           0.008 s
  | Density mixing                             :        0.000 s           0.000 s
  | Hartree multipole update                   :        0.000 s           0.001 s
  | Hartree multipole summation                :        0.008 s           0.004 s
  | Integration                                :        0.012 s           0.011 s
  | Solution of K.-S. eqns.                    :        0.004 s           0.002 s
  | Total energy evaluation                    :        0.000 s           0.000 s
------------------------------------------------------------

------------------------------------------------------------
          Begin self-consistency iteration #    2

  Date     :  20130814, Time     :  120518.570
------------------------------------------------------------
  Evaluating new KS density.
  Integration grid: deviation in total charge (<rho> - N_e) =  -5.684342E-14
  Pulay mixing of updated and previous charge densities.

  Evaluating partitioned Hartree potential by multipole expansion.
  | Analytical far-field extrapolation by fixed multipoles:
  | Hartree multipole sum: apparent total charge =  -0.534345E-04
  Summing up the Hartree potential.
  Time summed over all CPUs for potential: real work        0.016 s, elapsed        0.016 s
  | RMS charge density error from multipole expansion :   0.158096E-02

  Integrating Hamiltonian matrix: batch-based integration.
  Time summed over all CPUs for integration: real work        0.040 s, elapsed        0.041 s

  Updating Kohn-Sham eigenvalues, eigenvectors, occupation numbers, and Fermi level.
  Solving generalized eigenproblem
  Solving real symmetric generalised eigenvalue problem by standard ScaLAPACK.
  Using Cholesky factor for transformation
  Using 1-stage real ELPA solver
  Determining occupation numbers for Kohn-Sham eigenstates.
  | Chemical potential (Fermi level) in eV                 : -.54643226E+01
  | Error in electron count due to remaining E_F inaccuracy: 0.00000000E+00
  | Maximum occupation number of highest empty state:  0.00E+00

  Highest occupied state (VBM) at     -6.54733591 eV
  | Occupation number:      2.00000000

  Lowest unoccupied state (CBM) at    -5.05437162 eV
  | Occupation number:      0.00000000

  Overall HOMO-LUMO gap:      1.49296428 eV.

  Total energy components:
  | Sum of eigenvalues            :      -24756.16111576 Ha     -673649.41886502 eV
  | XC energy correction          :        -713.24155928 Ha      -19408.29031100 eV
  | XC potential correction       :         946.92095603 Ha       25767.03022551 eV
  | Free-atom electrostatic energy:      -14824.71448194 Ha     -403401.00587071 eV
  | Hartree energy correction     :           1.18048789 Ha          32.12270983 eV
  | Entropy correction            :           0.00000000 Ha           0.00000000 eV
  | ---------------------------
  | Total energy                  :      -39346.01571307 Ha    -1070659.56211139 eV
  | Total energy, T -> 0          :      -39346.01571307 Ha    -1070659.56211139 eV  <-- do not rely on this value for anything but (periodic) metals
  | Electronic free energy        :      -39346.01571307 Ha    -1070659.56211139 eV

  Derived energy quantities:
  | Kinetic energy                :       44140.72158755 Ha     1201130.14722627 eV
  | Electrostatic energy          :      -82773.49574134 Ha    -2252381.41902666 eV
  | Energy correction for multipole
  | error in Hartree potential    :          -0.00056099 Ha          -0.01526545 eV
  | Sum of eigenvalues per atom                           :     -336824.70943251 eV
  | Total energy (T->0) per atom                          :     -535329.78105569 eV  <-- do not rely on this value for anything but (periodic) metals
  | Electronic free energy per atom                       :     -535329.78105569 eV

  Self-consistency convergence accuracy:
  | Change of charge density      : 0.3474E-01
  | Change of sum of eigenvalues  : 0.3988E+02 eV
  | Change of total energy        : 0.3094E-01 eV

  End self-consistency iteration #     2       :  max(cpu_time)    wall_clock(cpu1)
  | Time for this iteration                    :        0.028 s           0.025 s
  | Charge density update                      :        0.008 s           0.007 s
  | Density mixing                             :        0.000 s           0.000 s
  | Hartree multipole update                   :        0.004 s           0.001 s
  | Hartree multipole summation                :        0.004 s           0.005 s
  | Integration                                :        0.012 s           0.010 s
  | Solution of K.-S. eqns.                    :        0.004 s           0.002 s
  | Total energy evaluation                    :        0.004 s           0.000 s
------------------------------------------------------------

------------------------------------------------------------
          Begin self-consistency iteration #    3

  Date     :  20130814, Time     :  120518.595
------------------------------------------------------------
  Evaluating new KS density.
  Integration grid: deviation in total charge (<rho> - N_e) =   1.136868E-13
  Pulay mixing of updated and previous charge densities.

  Evaluating partitioned Hartree potential by multipole expansion.
  | Analytical far-field extrapolation by fixed multipoles:
  | Hartree multipole sum: apparent total charge =  -0.721643E-04
  Summing up the Hartree potential.
  Time summed over all CPUs for potential: real work        0.016 s, elapsed        0.016 s
  | RMS charge density error from multipole expansion :   0.200113E-02

  Integrating Hamiltonian matrix: batch-based integration.
  Time summed over all CPUs for integration: real work        0.040 s, elapsed        0.041 s

  Updating Kohn-Sham eigenvalues, eigenvectors, occupation numbers, and Fermi level.
  Solving generalized eigenproblem
  Solving real symmetric generalised eigenvalue problem by standard ScaLAPACK.
  Using Cholesky factor for transformation
  Using 1-stage real ELPA solver
  Determining occupation numbers for Kohn-Sham eigenstates.
  | Chemical potential (Fermi level) in eV                 : -.54367846E+01
  | Error in electron count due to remaining E_F inaccuracy: 0.00000000E+00
  | Maximum occupation number of highest empty state:  0.00E+00

  Highest occupied state (VBM) at     -6.50473463 eV
  | Occupation number:      2.00000000

  Lowest unoccupied state (CBM) at    -5.04062321 eV
  | Occupation number:      0.00000000

  Overall HOMO-LUMO gap:      1.46411141 eV.

  Total energy components:
  | Sum of eigenvalues            :      -24755.83428780 Ha     -673640.52542347 eV
  | XC energy correction          :        -713.24629074 Ha      -19408.41906046 eV
  | XC potential correction       :         946.92721572 Ha       25767.20056035 eV
  | Free-atom electrostatic energy:      -14824.71448194 Ha     -403401.00587071 eV
  | Hartree energy correction     :           0.85219467 Ha          23.18939674 eV
  | Entropy correction            :           0.00000000 Ha           0.00000000 eV
  | ---------------------------
  | Total energy                  :      -39346.01565009 Ha    -1070659.56039756 eV
  | Total energy, T -> 0          :      -39346.01565009 Ha    -1070659.56039756 eV  <-- do not rely on this value for anything but (periodic) metals
  | Electronic free energy        :      -39346.01565009 Ha    -1070659.56039756 eV

  Derived energy quantities:
  | Kinetic energy                :       44140.83246766 Ha     1201133.16442757 eV
  | Electrostatic energy          :      -82773.60182701 Ha    -2252384.30576467 eV
  | Energy correction for multipole
  | error in Hartree potential    :          -0.00084195 Ha          -0.02291069 eV
  | Sum of eigenvalues per atom                           :     -336820.26271174 eV
  | Total energy (T->0) per atom                          :     -535329.78019878 eV  <-- do not rely on this value for anything but (periodic) metals
  | Electronic free energy per atom                       :     -535329.78019878 eV

  Self-consistency convergence accuracy:
  | Change of charge density      : 0.1104E-01
  | Change of sum of eigenvalues  : 0.8893E+01 eV
  | Change of total energy        : 0.1714E-02 eV

  End self-consistency iteration #     3       :  max(cpu_time)    wall_clock(cpu1)
  | Time for this iteration                    :        0.028 s           0.026 s
  | Charge density update                      :        0.008 s           0.008 s
  | Density mixing                             :        0.000 s           0.000 s
  | Hartree multipole update                   :        0.000 s           0.001 s
  | Hartree multipole summation                :        0.008 s           0.004 s
  | Integration                                :        0.012 s           0.011 s
  | Solution of K.-S. eqns.                    :        0.004 s           0.002 s
  | Total energy evaluation                    :        0.000 s           0.000 s
------------------------------------------------------------

------------------------------------------------------------
          Begin self-consistency iteration #    4

  Date     :  20130814, Time     :  120518.621
------------------------------------------------------------
  Evaluating new KS density.
  Integration grid: deviation in total charge (<rho> - N_e) =   1.136868E-13
  Pulay mixing of updated and previous charge densities.

  Evaluating partitioned Hartree potential by multipole expansion.
  | Analytical far-field extrapolation by fixed multipoles:
  | Hartree multipole sum: apparent total charge =  -0.748336E-04
  Summing up the Hartree potential.
  Time summed over all CPUs for potential: real work        0.016 s, elapsed        0.016 s
  | RMS charge density error from multipole expansion :   0.208023E-02

  Integrating Hamiltonian matrix: batch-based integration.
  Time summed over all CPUs for integration: real work        0.040 s, elapsed        0.041 s

  Updating Kohn-Sham eigenvalues, eigenvectors, occupation numbers, and Fermi level.
  Solving generalized eigenproblem
  Solving real symmetric generalised eigenvalue problem by standard ScaLAPACK.
  Using Cholesky factor for transformation
  Using 1-stage real ELPA solver
  Determining occupation numbers for Kohn-Sham eigenstates.
  | Chemical potential (Fermi level) in eV                 : -.54399434E+01
  | Error in electron count due to remaining E_F inaccuracy: 0.00000000E+00
  | Maximum occupation number of highest empty state:  0.00E+00

  Highest occupied state (VBM) at     -6.51277267 eV
  | Occupation number:      2.00000000

  Lowest unoccupied state (CBM) at    -5.04168241 eV
  | Occupation number:      0.00000000

  Overall HOMO-LUMO gap:      1.47109026 eV.

  Total energy components:
  | Sum of eigenvalues            :      -24755.96333298 Ha     -673644.03692161 eV
  | XC energy correction          :        -713.24368552 Ha      -19408.34816899 eV
  | XC potential correction       :         946.92376800 Ha       25767.10674331 eV
  | Free-atom electrostatic energy:      -14824.71448194 Ha     -403401.00587071 eV
  | Hartree energy correction     :           0.98208888 Ha          26.72399818 eV
  | Entropy correction            :           0.00000000 Ha           0.00000000 eV
  | ---------------------------
  | Total energy                  :      -39346.01564356 Ha    -1070659.56021982 eV
  | Total energy, T -> 0          :      -39346.01564356 Ha    -1070659.56021982 eV  <-- do not rely on this value for anything but (periodic) metals
  | Electronic free energy        :      -39346.01564356 Ha    -1070659.56021982 eV

  Derived energy quantities:
  | Kinetic energy                :       44140.79857038 Ha     1201132.24203566 eV
  | Electrostatic energy          :      -82773.57052841 Ha    -2252383.45408649 eV
  | Energy correction for multipole
  | error in Hartree potential    :          -0.00092445 Ha          -0.02515564 eV
  | Sum of eigenvalues per atom                           :     -336822.01846081 eV
  | Total energy (T->0) per atom                          :     -535329.78010991 eV  <-- do not rely on this value for anything but (periodic) metals
  | Electronic free energy per atom                       :     -535329.78010991 eV

  Self-consistency convergence accuracy:
  | Change of charge density      : 0.2993E-02
  | Change of sum of eigenvalues  : -.3511E+01 eV
  | Change of total energy        : 0.1777E-03 eV

  End self-consistency iteration #     4       :  max(cpu_time)    wall_clock(cpu1)
  | Time for this iteration                    :        0.028 s           0.026 s
  | Charge density update                      :        0.008 s           0.008 s
  | Density mixing                             :        0.000 s           0.000 s
  | Hartree multipole update                   :        0.004 s           0.001 s
  | Hartree multipole summation                :        0.004 s           0.004 s
  | Integration                                :        0.012 s           0.011 s
  | Solution of K.-S. eqns.                    :        0.004 s           0.002 s
  | Total energy evaluation                    :        0.000 s           0.000 s
------------------------------------------------------------

------------------------------------------------------------
          Begin self-consistency iteration #    5

  Date     :  20130814, Time     :  120518.647
------------------------------------------------------------
  Evaluating new KS density.
  Integration grid: deviation in total charge (<rho> - N_e) =   5.684342E-14
  Pulay mixing of updated and previous charge densities.

  Evaluating partitioned Hartree potential by multipole expansion.
  | Analytical far-field extrapolation by fixed multipoles:
  | Hartree multipole sum: apparent total charge =  -0.761188E-04
  Summing up the Hartree potential.
  Time summed over all CPUs for potential: real work        0.016 s, elapsed        0.016 s
  | RMS charge density error from multipole expansion :   0.210289E-02

  Integrating Hamiltonian matrix: batch-based integration.
  Time summed over all CPUs for integration: real work        0.040 s, elapsed        0.041 s

  Updating Kohn-Sham eigenvalues, eigenvectors, occupation numbers, and Fermi level.
  Solving generalized eigenproblem
  Solving real symmetric generalised eigenvalue problem by standard ScaLAPACK.
  Using Cholesky factor for transformation
  Using 1-stage real ELPA solver
  Determining occupation numbers for Kohn-Sham eigenstates.
  | Chemical potential (Fermi level) in eV                 : -.54370654E+01
  | Error in electron count due to remaining E_F inaccuracy: 0.00000000E+00
  | Maximum occupation number of highest empty state:  0.00E+00

  Highest occupied state (VBM) at     -6.50902621 eV
  | Occupation number:      2.00000000

  Lowest unoccupied state (CBM) at    -5.03882045 eV
  | Occupation number:      0.00000000

  Overall HOMO-LUMO gap:      1.47020575 eV.

  Total energy components:
  | Sum of eigenvalues            :      -24755.91247262 Ha     -673642.65294076 eV
  | XC energy correction          :        -713.24455996 Ha      -19408.37196371 eV
  | XC potential correction       :         946.92492450 Ha       25767.13821321 eV
  | Free-atom electrostatic energy:      -14824.71448194 Ha     -403401.00587071 eV
  | Hartree energy correction     :           0.93094719 Ha          25.33236203 eV
  | Entropy correction            :           0.00000000 Ha           0.00000000 eV
  | ---------------------------
  | Total energy                  :      -39346.01564283 Ha    -1070659.56019994 eV
  | Total energy, T -> 0          :      -39346.01564283 Ha    -1070659.56019994 eV  <-- do not rely on this value for anything but (periodic) metals
  | Electronic free energy        :      -39346.01564283 Ha    -1070659.56019994 eV

  Derived energy quantities:
  | Kinetic energy                :       44140.81075365 Ha     1201132.57355943 eV
  | Electrostatic energy          :      -82773.58183652 Ha    -2252383.76179566 eV
  | Energy correction for multipole
  | error in Hartree potential    :          -0.00095018 Ha          -0.02585563 eV
  | Sum of eigenvalues per atom                           :     -336821.32647038 eV
  | Total energy (T->0) per atom                          :     -535329.78009997 eV  <-- do not rely on this value for anything but (periodic) metals
  | Electronic free energy per atom                       :     -535329.78009997 eV

  Self-consistency convergence accuracy:
  | Change of charge density      : 0.8427E-03
  | Change of sum of eigenvalues  : 0.1384E+01 eV
  | Change of total energy        : 0.1988E-04 eV

  End self-consistency iteration #     5       :  max(cpu_time)    wall_clock(cpu1)
  | Time for this iteration                    :        0.028 s           0.026 s
  | Charge density update                      :        0.008 s           0.008 s
  | Density mixing                             :        0.000 s           0.000 s
  | Hartree multipole update                   :        0.000 s           0.001 s
  | Hartree multipole summation                :        0.004 s           0.005 s
  | Integration                                :        0.012 s           0.010 s
  | Solution of K.-S. eqns.                    :        0.004 s           0.002 s
  | Total energy evaluation                    :        0.000 s           0.000 s
------------------------------------------------------------

------------------------------------------------------------
          Begin self-consistency iteration #    6

  Date     :  20130814, Time     :  120518.673
------------------------------------------------------------
  Evaluating new KS density.
  Integration grid: deviation in total charge (<rho> - N_e) =   5.684342E-14
  Pulay mixing of updated and previous charge densities.

  Evaluating partitioned Hartree potential by multipole expansion.
  | Analytical far-field extrapolation by fixed multipoles:
  | Hartree multipole sum: apparent total charge =  -0.762776E-04
  Summing up the Hartree potential.
  Time summed over all CPUs for potential: real work        0.016 s, elapsed        0.016 s
  | RMS charge density error from multipole expansion :   0.210558E-02

  Integrating Hamiltonian matrix: batch-based integration.
  Time summed over all CPUs for integration: real work        0.040 s, elapsed        0.041 s

  Updating Kohn-Sham eigenvalues, eigenvectors, occupation numbers, and Fermi level.
  Solving generalized eigenproblem
  Solving real symmetric generalised eigenvalue problem by standard ScaLAPACK.
  Using Cholesky factor for transformation
  Using 1-stage real ELPA solver
  Determining occupation numbers for Kohn-Sham eigenstates.
  | Chemical potential (Fermi level) in eV                 : -.54367464E+01
  | Error in electron count due to remaining E_F inaccuracy: 0.00000000E+00
  | Maximum occupation number of highest empty state:  0.00E+00

  Highest occupied state (VBM) at     -6.50862473 eV
  | Occupation number:      2.00000000

  Lowest unoccupied state (CBM) at    -5.03845978 eV
  | Occupation number:      0.00000000

  Overall HOMO-LUMO gap:      1.47016495 eV.

  Total energy components:
  | Sum of eigenvalues            :      -24755.90442307 Ha     -673642.43390151 eV
  | XC energy correction          :        -713.24473182 Ha      -19408.37664021 eV
  | XC potential correction       :         946.92515199 Ha       25767.14440353 eV
  | Free-atom electrostatic energy:      -14824.71448194 Ha     -403401.00587071 eV
  | Hartree energy correction     :           0.92284208 Ha          25.11181054 eV
  | Entropy correction            :           0.00000000 Ha           0.00000000 eV
  | ---------------------------
  | Total energy                  :      -39346.01564277 Ha    -1070659.56019836 eV
  | Total energy, T -> 0          :      -39346.01564277 Ha    -1070659.56019836 eV  <-- do not rely on this value for anything but (periodic) metals
  | Electronic free energy        :      -39346.01564277 Ha    -1070659.56019836 eV

  Derived energy quantities:
  | Kinetic energy                :       44140.81331644 Ha     1201132.64329638 eV
  | Electrostatic energy          :      -82773.58422739 Ha    -2252383.82685453 eV
  | Energy correction for multipole
  | error in Hartree potential    :          -0.00095373 Ha          -0.02595236 eV
  | Sum of eigenvalues per atom                           :     -336821.21695075 eV
  | Total energy (T->0) per atom                          :     -535329.78009918 eV  <-- do not rely on this value for anything but (periodic) metals
  | Electronic free energy per atom                       :     -535329.78009918 eV

  Self-consistency convergence accuracy:
  | Change of charge density      : 0.1112E-03
  | Change of sum of eigenvalues  : 0.2190E+00 eV
  | Change of total energy        : 0.1579E-05 eV

  End self-consistency iteration #     6       :  max(cpu_time)    wall_clock(cpu1)
  | Time for this iteration                    :        0.028 s           0.026 s
  | Charge density update                      :        0.008 s           0.008 s
  | Density mixing                             :        0.000 s           0.001 s
  | Hartree multipole update                   :        0.004 s           0.000 s
  | Hartree multipole summation                :        0.004 s           0.005 s
  | Integration                                :        0.012 s           0.010 s
  | Solution of K.-S. eqns.                    :        0.004 s           0.002 s
  | Total energy evaluation                    :        0.000 s           0.000 s
------------------------------------------------------------

------------------------------------------------------------
          Begin self-consistency iteration #    7

  Date     :  20130814, Time     :  120518.700
------------------------------------------------------------
  Evaluating new KS density.
  Integration grid: deviation in total charge (<rho> - N_e) =   1.705303E-13
  Pulay mixing of updated and previous charge densities.

  Evaluating partitioned Hartree potential by multipole expansion.
  | Analytical far-field extrapolation by fixed multipoles:
  | Hartree multipole sum: apparent total charge =  -0.762633E-04
  Summing up the Hartree potential.
  Time summed over all CPUs for potential: real work        0.016 s, elapsed        0.016 s
  | RMS charge density error from multipole expansion :   0.210544E-02

  Integrating Hamiltonian matrix: batch-based integration.
  Time summed over all CPUs for integration: real work        0.040 s, elapsed        0.041 s

  Updating Kohn-Sham eigenvalues, eigenvectors, occupation numbers, and Fermi level.
  Solving generalized eigenproblem
  Solving real symmetric generalised eigenvalue problem by standard ScaLAPACK.
  Using Cholesky factor for transformation
  Using 1-stage real ELPA solver
  Determining occupation numbers for Kohn-Sham eigenstates.
  | Chemical potential (Fermi level) in eV                 : -.54368137E+01
  | Error in electron count due to remaining E_F inaccuracy: 0.00000000E+00
  | Maximum occupation number of highest empty state:  0.00E+00

  Highest occupied state (VBM) at     -6.50872357 eV
  | Occupation number:      2.00000000

  Lowest unoccupied state (CBM) at    -5.03854973 eV
  | Occupation number:      0.00000000

  Overall HOMO-LUMO gap:      1.47017383 eV.

  Total energy components:
  | Sum of eigenvalues            :      -24755.90567437 Ha     -673642.46795088 eV
  | XC energy correction          :        -713.24470946 Ha      -19408.37603180 eV
  | XC potential correction       :         946.92512245 Ha       25767.14359966 eV
  | Free-atom electrostatic energy:      -14824.71448194 Ha     -403401.00587071 eV
  | Hartree energy correction     :           0.92410054 Ha          25.14605514 eV
  | Entropy correction            :           0.00000000 Ha           0.00000000 eV
  | ---------------------------
  | Total energy                  :      -39346.01564278 Ha    -1070659.56019859 eV
  | Total energy, T -> 0          :      -39346.01564278 Ha    -1070659.56019859 eV  <-- do not rely on this value for anything but (periodic) metals
  | Electronic free energy        :      -39346.01564278 Ha    -1070659.56019859 eV

  Derived energy quantities:
  | Kinetic energy                :       44140.81298228 Ha     1201132.63420351 eV
  | Electrostatic energy          :      -82773.58391560 Ha    -2252383.81837031 eV
  | Energy correction for multipole
  | error in Hartree potential    :          -0.00095407 Ha          -0.02596153 eV
  | Sum of eigenvalues per atom                           :     -336821.23397544 eV
  | Total energy (T->0) per atom                          :     -535329.78009930 eV  <-- do not rely on this value for anything but (periodic) metals
  | Electronic free energy per atom                       :     -535329.78009930 eV

  Self-consistency convergence accuracy:
  | Change of charge density      : 0.1921E-04
  | Change of sum of eigenvalues  : -.3405E-01 eV
  | Change of total energy        : -.2368E-06 eV

  End self-consistency iteration #     7       :  max(cpu_time)    wall_clock(cpu1)
  | Time for this iteration                    :        0.028 s           0.026 s
  | Charge density update                      :        0.008 s           0.007 s
  | Density mixing                             :        0.000 s           0.001 s
  | Hartree multipole update                   :        0.000 s           0.001 s
  | Hartree multipole summation                :        0.008 s           0.004 s
  | Integration                                :        0.012 s           0.010 s
  | Solution of K.-S. eqns.                    :        0.004 s           0.002 s
  | Total energy evaluation                    :        0.000 s           0.001 s
------------------------------------------------------------

------------------------------------------------------------
          Begin self-consistency iteration #    8

  Date     :  20130814, Time     :  120518.726
------------------------------------------------------------
  Evaluating new KS density.
  Integration grid: deviation in total charge (<rho> - N_e) =   1.989520E-13
  Pulay mixing of updated and previous charge densities.

  Evaluating partitioned Hartree potential by multipole expansion.
  | Analytical far-field extrapolation by fixed multipoles:
  | Hartree multipole sum: apparent total charge =  -0.762676E-04
  Summing up the Hartree potential.
  Time summed over all CPUs for potential: real work        0.016 s, elapsed        0.016 s
  | RMS charge density error from multipole expansion :   0.210554E-02

  Integrating Hamiltonian matrix: batch-based integration.
  Time summed over all CPUs for integration: real work        0.040 s, elapsed        0.041 s

  Updating Kohn-Sham eigenvalues, eigenvectors, occupation numbers, and Fermi level.
  Solving generalized eigenproblem
  Solving real symmetric generalised eigenvalue problem by standard ScaLAPACK.
  Using Cholesky factor for transformation
  Using 1-stage real ELPA solver
  Determining occupation numbers for Kohn-Sham eigenstates.
  | Chemical potential (Fermi level) in eV                 : -.54368108E+01
  | Error in electron count due to remaining E_F inaccuracy: 0.00000000E+00
  | Maximum occupation number of highest empty state:  0.00E+00

  Highest occupied state (VBM) at     -6.50872010 eV
  | Occupation number:      2.00000000

  Lowest unoccupied state (CBM) at    -5.03854577 eV
  | Occupation number:      0.00000000

  Overall HOMO-LUMO gap:      1.47017433 eV.

  Total energy components:
  | Sum of eigenvalues            :      -24755.90560059 Ha     -673642.46594326 eV
  | XC energy correction          :        -713.24471092 Ha      -19408.37607152 eV
  | XC potential correction       :         946.92512438 Ha       25767.14365229 eV
  | Free-atom electrostatic energy:      -14824.71448194 Ha     -403401.00587071 eV
  | Hartree energy correction     :           0.92402629 Ha          25.14403463 eV
  | Entropy correction            :           0.00000000 Ha           0.00000000 eV
  | ---------------------------
  | Total energy                  :      -39346.01564278 Ha    -1070659.56019857 eV
  | Total energy, T -> 0          :      -39346.01564278 Ha    -1070659.56019857 eV  <-- do not rely on this value for anything but (periodic) metals
  | Electronic free energy        :      -39346.01564278 Ha    -1070659.56019857 eV

  Derived energy quantities:
  | Kinetic energy                :       44140.81299938 Ha     1201132.63466864 eV
  | Electrostatic energy          :      -82773.58393123 Ha    -2252383.81879569 eV
  | Energy correction for multipole
  | error in Hartree potential    :          -0.00095423 Ha          -0.02596600 eV
  | Sum of eigenvalues per atom                           :     -336821.23297163 eV
  | Total energy (T->0) per atom                          :     -535329.78009928 eV  <-- do not rely on this value for anything but (periodic) metals
  | Electronic free energy per atom                       :     -535329.78009928 eV

  Self-consistency convergence accuracy:
  | Change of charge density      : 0.1996E-05
  | Change of sum of eigenvalues  : 0.2008E-02 eV
  | Change of total energy        : 0.2653E-07 eV

  End self-consistency iteration #     8       :  max(cpu_time)    wall_clock(cpu1)
  | Time for this iteration                    :        0.028 s           0.026 s
  | Charge density update                      :        0.008 s           0.008 s
  | Density mixing                             :        0.000 s           0.000 s
  | Hartree multipole update                   :        0.000 s           0.001 s
  | Hartree multipole summation                :        0.004 s           0.004 s
  | Integration                                :        0.012 s           0.011 s
  | Solution of K.-S. eqns.                    :        0.004 s           0.002 s
  | Total energy evaluation                    :        0.000 s           0.000 s
------------------------------------------------------------

------------------------------------------------------------
          Begin self-consistency iteration #    9

  Date     :  20130814, Time     :  120518.752
------------------------------------------------------------
  Evaluating new KS density.
  Integration grid: deviation in total charge (<rho> - N_e) =   2.273737E-13
  Pulay mixing of updated and previous charge densities.

  Evaluating partitioned Hartree potential by multipole expansion.
  | Analytical far-field extrapolation by fixed multipoles:
  | Hartree multipole sum: apparent total charge =  -0.762676E-04
  Summing up the Hartree potential.
  Time summed over all CPUs for potential: real work        0.016 s, elapsed        0.016 s
  | RMS charge density error from multipole expansion :   0.210554E-02

  Integrating Hamiltonian matrix: batch-based integration.
  Time summed over all CPUs for integration: real work        0.040 s, elapsed        0.041 s

  Updating Kohn-Sham eigenvalues, eigenvectors, occupation numbers, and Fermi level.
  Solving generalized eigenproblem
  Solving real symmetric generalised eigenvalue problem by standard ScaLAPACK.
  Using Cholesky factor for transformation
  Using 1-stage real ELPA solver
  Determining occupation numbers for Kohn-Sham eigenstates.
  | Chemical potential (Fermi level) in eV                 : -.54368111E+01
  | Error in electron count due to remaining E_F inaccuracy: 0.00000000E+00
  | Maximum occupation number of highest empty state:  0.00E+00

  Highest occupied state (VBM) at     -6.50872056 eV
  | Occupation number:      2.00000000

  Lowest unoccupied state (CBM) at    -5.03854631 eV
  | Occupation number:      0.00000000

  Overall HOMO-LUMO gap:      1.47017426 eV.

  Total energy components:
  | Sum of eigenvalues            :      -24755.90561272 Ha     -673642.46627349 eV
  | XC energy correction          :        -713.24471065 Ha      -19408.37606396 eV
  | XC potential correction       :         946.92512402 Ha       25767.14364229 eV
  | Free-atom electrostatic energy:      -14824.71448194 Ha     -403401.00587071 eV
  | Hartree energy correction     :           0.92403851 Ha          25.14436730 eV
  | Entropy correction            :           0.00000000 Ha           0.00000000 eV
  | ---------------------------
  | Total energy                  :      -39346.01564278 Ha    -1070659.56019857 eV
  | Total energy, T -> 0          :      -39346.01564278 Ha    -1070659.56019857 eV  <-- do not rely on this value for anything but (periodic) metals
  | Electronic free energy        :      -39346.01564278 Ha    -1070659.56019857 eV

  Derived energy quantities:
  | Kinetic energy                :       44140.81299566 Ha     1201132.63456738 eV
  | Electrostatic energy          :      -82773.58392779 Ha    -2252383.81870199 eV
  | Energy correction for multipole
  | error in Hartree potential    :          -0.00095424 Ha          -0.02596612 eV
  | Sum of eigenvalues per atom                           :     -336821.23313674 eV
  | Total energy (T->0) per atom                          :     -535329.78009928 eV  <-- do not rely on this value for anything but (periodic) metals
  | Electronic free energy per atom                       :     -535329.78009928 eV

  Self-consistency convergence accuracy:
  | Change of charge density      : 0.1345E-06
  | Change of sum of eigenvalues  : -.3302E-03 eV
  | Change of total energy        : 0.9899E-09 eV

  Electronic self-consistency reached - switching on the force computation.

  End self-consistency iteration #     9       :  max(cpu_time)    wall_clock(cpu1)
  | Time for this iteration                    :        0.028 s           0.027 s
  | Charge density & force component update    :        0.008 s           0.008 s
  | Density mixing                             :        0.000 s           0.001 s
  | Hartree multipole update                   :        0.004 s           0.000 s
  | Hartree multipole summation                :        0.004 s           0.005 s
  | Integration                                :        0.012 s           0.010 s
  | Solution of K.-S. eqns.                    :        0.004 s           0.002 s
  | Total energy evaluation                    :        0.000 s           0.000 s
------------------------------------------------------------

------------------------------------------------------------
          Begin self-consistency iteration #   10

  Date     :  20130814, Time     :  120518.779
------------------------------------------------------------
  Evaluating new KS density.
  Integration grid: deviation in total charge (<rho> - N_e) =   1.136868E-13
  Pulay mixing of updated and previous charge densities.

  Evaluating partitioned Hartree potential by multipole expansion.
  | Analytical far-field extrapolation by fixed multipoles:
  | Hartree multipole sum: apparent total charge =  -0.762676E-04
  Summing up the Hartree potential.
  Time summed over all CPUs for potential: real work        0.042 s, elapsed        0.042 s
  | RMS charge density error from multipole expansion :   0.210554E-02

  Integrating Hamiltonian matrix: batch-based integration.
  Time summed over all CPUs for integration: real work        0.040 s, elapsed        0.041 s

[...]
  | Energy correction for multipole
  | error in Hartree potential    :          -0.00280406 Ha          -0.07630223 eV
  | Sum of eigenvalues per atom                           :     -336832.03147878 eV
  | Total energy (T->0) per atom                          :     -535330.22326657 eV  <-- do not rely on this value for anything but (periodic) metals
  | Electronic free energy per atom                       :     -535330.22326657 eV

  atomic forces [eV/Ang]:
  -----------------------
  atom #    1
   Hellmann-Feynman + Multipole  : -.878045E-09 0.904022E-09 0.754509E+02
   Pulay + GGA                   : 0.000000E+00 0.000000E+00 0.000000E+00
   ----------------------------------------------------------------
   Total forces(   1)            : -.878045E-09 0.904022E-09 0.754509E+02
  atom #    2
   Hellmann-Feynman + Multipole  : 0.653374E-09 0.269399E-08 -.754509E+02
   Pulay + GGA                   : 0.000000E+00 0.000000E+00 0.000000E+00
   ----------------------------------------------------------------
   Total forces(   2)            : 0.653374E-09 0.269399E-08 -.754509E+02

  Self-consistency convergence accuracy:
  | Change of charge density      : 0.1324E-07
  | Change of sum of eigenvalues  : -.1500E-04 eV
  | Change of total energy        : 0.1980E-09 eV
  | Change of forces              : 0.7545E+02 eV/A

  End self-consistency iteration #     8       :  max(cpu_time)    wall_clock(cpu1)
  | Time for this iteration                    :        0.052 s           0.051 s
  | Charge density & force component update    :        0.008 s           0.007 s
  | Density mixing                             :        0.004 s           0.003 s
  | Hartree multipole update                   :        0.004 s           0.002 s
  | Hartree multipole summation                :        0.020 s           0.018 s
  | Integration                                :        0.020 s           0.017 s
  | Solution of K.-S. eqns.                    :        0.004 s           0.003 s
  | Total energy evaluation                    :        0.000 s           0.001 s
------------------------------------------------------------

------------------------------------------------------------
          Begin self-consistency iteration #    9

  Date     :  20130814, Time     :  120521.654
------------------------------------------------------------
  Evaluating new KS density and force components.
  Integration grid: deviation in total charge (<rho> - N_e) =   2.557954E-13
  Pulay mixing of updated and previous charge densities.

  Evaluating partitioned Hartree potential by multipole expansion.
  | Analytical far-field extrapolation by fixed multipoles:
  | Hartree multipole sum: apparent total charge =  -0.864969E-04
  Summing up the Hartree potential.
  Time summed over all CPUs for potential: real work        0.056 s, elapsed        0.072 s
  | RMS charge density error from multipole expansion :   0.393319E-02

  Integrating Hamiltonian matrix: batch-based integration.
  Time summed over all CPUs for integration: real work        0.053 s, elapsed        0.069 s

  Updating Kohn-Sham eigenvalues, eigenvectors, occupation numbers, and Fermi level.
  Solving generalized eigenproblem
  Solving real symmetric generalised eigenvalue problem by standard ScaLAPACK.
  Using Cholesky factor for transformation
  Using 1-stage real ELPA solver
  Determining occupation numbers for Kohn-Sham eigenstates.
  | Chemical potential (Fermi level) in eV                 : -.54782691E+01
  | Error in electron count due to remaining E_F inaccuracy: 0.00000000E+00
  | Maximum occupation number of highest empty state:  0.00E+00

  Highest occupied state (VBM) at     -6.45043936 eV
  | Occupation number:      2.00000000

  Lowest unoccupied state (CBM) at    -4.49652291 eV
  | Occupation number:      0.00000000

  Overall HOMO-LUMO gap:      1.95391645 eV.

  Total energy components:
  | Sum of eigenvalues            :      -24756.69927630 Ha     -673664.06295830 eV
  | XC energy correction          :        -713.30494361 Ha      -19410.01508640 eV
  | XC potential correction       :         947.00414285 Ha       25769.29385411 eV
  | Free-atom electrostatic energy:      -14824.28866939 Ha     -403389.41892174 eV
  | Hartree energy correction     :           1.24053148 Ha          33.75657919 eV
  | Entropy correction            :           0.00000000 Ha           0.00000000 eV
  | ---------------------------
  | Total energy                  :      -39346.04821497 Ha    -1070660.44653314 eV
  | Total energy, T -> 0          :      -39346.04821497 Ha    -1070660.44653314 eV  <-- do not rely on this value for anything but (periodic) metals
  | Electronic free energy        :      -39346.04821497 Ha    -1070660.44653314 eV

  Derived energy quantities:
  | Kinetic energy                :       44141.12832828 Ha     1201141.21520465 eV
  | Electrostatic energy          :      -82773.87159964 Ha    -2252391.64665139 eV
  | Energy correction for multipole
  | error in Hartree potential    :          -0.00280406 Ha          -0.07630223 eV
  | Sum of eigenvalues per atom                           :     -336832.03147915 eV
  | Total energy (T->0) per atom                          :     -535330.22326657 eV  <-- do not rely on this value for anything but (periodic) metals
  | Electronic free energy per atom                       :     -535330.22326657 eV

  atomic forces [eV/Ang]:
  -----------------------
  atom #    1
   Hellmann-Feynman + Multipole  : 0.500640E-09 -.594014E-09 0.754509E+02
   Pulay + GGA                   : 0.261901E-08 -.598632E-07 -.754537E+02
   ----------------------------------------------------------------
   Total forces(   1)            : 0.311965E-08 -.604572E-07 -.282089E-02
  atom #    2
   Hellmann-Feynman + Multipole  : 0.297363E-08 0.243890E-08 -.754509E+02
   Pulay + GGA                   : -.598632E-08 -.119726E-07 0.754537E+02
   ----------------------------------------------------------------
   Total forces(   2)            : -.301269E-08 -.953373E-08 0.282767E-02

  Self-consistency convergence accuracy:
  | Change of charge density      : 0.9139E-08
  | Change of sum of eigenvalues  : -.7514E-06 eV
  | Change of total energy        : -.1980E-09 eV
  | Change of forces              : 0.5674E-05 eV/A

  Writing Kohn-Sham eigenvalues.

  State    Occupation    Eigenvalue [Ha]    Eigenvalue [eV]
      1       2.00000       -3253.512599       -88532.58231
      2       2.00000       -3253.512599       -88532.58231
      3       2.00000        -533.282653       -14511.35933
      4       2.00000        -533.282653       -14511.35933
      5       2.00000        -460.282667       -12524.92863
      6       2.00000        -460.282667       -12524.92863
      7       2.00000        -460.282667       -12524.92863
      8       2.00000        -460.282667       -12524.92863
      9       2.00000        -460.282620       -12524.92734
     10       2.00000        -460.282620       -12524.92734
     11       2.00000        -124.143150        -3378.10698
     12       2.00000        -124.143150        -3378.10698
     13       2.00000        -103.438270        -2814.69853
     14       2.00000        -103.438270        -2814.69853
     15       2.00000        -103.438270        -2814.69853
     16       2.00000        -103.438270        -2814.69853
     17       2.00000        -103.436870        -2814.66044
     18       2.00000        -103.436870        -2814.66044
     19       2.00000         -81.388433        -2214.69194
     20       2.00000         -81.388433        -2214.69194
     21       2.00000         -81.388433        -2214.69194
     22       2.00000         -81.388433        -2214.69194
     23       2.00000         -81.387412        -2214.66417
     24       2.00000         -81.387412        -2214.66417
     25       2.00000         -81.387412        -2214.66417
     26       2.00000         -81.387412        -2214.66417
     27       2.00000         -81.387275        -2214.66045
     28       2.00000         -81.387275        -2214.66045
     29       2.00000         -26.809650         -729.52771
     30       2.00000         -26.809650         -729.52771
     31       2.00000         -20.063884         -545.96605
     32       2.00000         -20.063884         -545.96605
     33       2.00000         -20.063769         -545.96294
     34       2.00000         -20.063769         -545.96294
     35       2.00000         -20.063769         -545.96294
     36       2.00000         -20.063769         -545.96294
     37       2.00000         -11.986784         -326.17698
     38       2.00000         -11.986784         -326.17698
     39       2.00000         -11.986093         -326.15820
     40       2.00000         -11.986093         -326.15820
     41       2.00000         -11.986093         -326.15820
     42       2.00000         -11.986093         -326.15820
     43       2.00000         -11.985964         -326.15466
     44       2.00000         -11.985964         -326.15466
     45       2.00000         -11.985963         -326.15466
     46       2.00000         -11.985963         -326.15466
     47       2.00000          -4.000538         -108.86019
     48       2.00000          -3.999792         -108.83988
     49       2.00000          -3.015506          -82.05610
     50       2.00000          -3.015385          -82.05279
     51       2.00000          -3.015095          -82.04491
     52       2.00000          -3.015095          -82.04491
     53       2.00000          -3.015044          -82.04352
     54       2.00000          -3.015044          -82.04352
     55       2.00000          -3.014273          -82.02254
     56       2.00000          -3.014272          -82.02252
     57       2.00000          -3.014264          -82.02229
     58       2.00000          -3.014263          -82.02227
     59       2.00000          -3.013884          -82.01195
     60       2.00000          -3.013884          -82.01195
     61       2.00000          -3.013883          -82.01193
     62       2.00000          -3.013883          -82.01193
     63       2.00000          -2.226164          -60.57700
     64       2.00000          -2.214050          -60.24737
     65       2.00000          -2.205716          -60.02059
     66       2.00000          -2.205716          -60.02059
     67       2.00000          -2.204530          -59.98830
     68       2.00000          -2.204530          -59.98830
     69       2.00000          -0.351576           -9.56686
     70       2.00000          -0.303019           -8.24556
     71       2.00000          -0.303019           -8.24556
     72       2.00000          -0.262483           -7.14252
     73       2.00000          -0.262482           -7.14251
     74       2.00000          -0.248838           -6.77124
     75       2.00000          -0.248838           -6.77124
     76       2.00000          -0.247541           -6.73594
     77       2.00000          -0.239290           -6.51140
     78       2.00000          -0.239290           -6.51140
     79       2.00000          -0.237049           -6.45044
     80       0.00000          -0.165244           -4.49652
     81       0.00000          -0.009760           -0.26558
     82       0.00000          -0.009098           -0.24758
     83       0.00000          -0.009098           -0.24758
     84       0.00000           0.078685            2.14112
     85       0.00000           0.078685            2.14112
     86       0.00000           0.193380            5.26214
     87       0.00000           0.215022            5.85105
     88       0.00000           0.218578            5.94782
     89       0.00000           0.218634            5.94933
     90       0.00000           0.274259            7.46297
     91       0.00000           0.274259            7.46297
     92       0.00000           0.299663            8.15425
     93       0.00000           0.303186            8.25011
     94       0.00000           0.303186            8.25011
     95       0.00000           0.386949           10.52943
     96       0.00000           0.412482           11.22422
     97       0.00000           0.412482           11.22422

  Highest occupied state (VBM) at     -6.45043936 eV
  | Occupation number:      2.00000000

  Lowest unoccupied state (CBM) at    -4.49652291 eV
  | Occupation number:      0.00000000

  Overall HOMO-LUMO gap:      1.95391645 eV.

  Self-consistency cycle converged.

  End self-consistency iteration #     9       :  max(cpu_time)    wall_clock(cpu1)
  | Time for this iteration                    :        0.136 s           0.135 s
  | Charge density & force component update    :        0.092 s           0.093 s
  | Density mixing                             :        0.004 s           0.001 s
  | Hartree multipole update                   :        0.004 s           0.001 s
  | Hartree multipole summation                :        0.020 s           0.018 s
  | Integration                                :        0.020 s           0.018 s
  | Solution of K.-S. eqns.                    :        0.004 s           0.003 s
  | Total energy evaluation                    :        0.000 s           0.000 s
------------------------------------------------------------
  Removing unitary transformations (pure translations, rotations) from forces on atoms.
  Atomic forces before filtering:
  | Net force on center of mass :  0.106966E-09 -.699909E-07 0.677676E-05 eV/A
  | Net torque on center of mass:  -.627491E-07 -.755642E-08 -.339884E-77 eV
  Atomic forces after filtering:
  | Net force on center of mass :  -.166154E-24 -.106338E-22 0.000000E+00 eV/A
  | Net torque on center of mass:  0.124949E-38 -.655163E-23 0.643344E-93 eV
 
  Energy and forces in a compact form:
  | Total energy uncorrected      :         -0.107066044653314E+07 eV
  | Total energy corrected        :         -0.107066044653314E+07 eV  <-- do not rely on this value for anything but (periodic) metals
  | Electronic free energy        :         -0.107066044653314E+07 eV
  Total atomic forces (unitary forces cleaned) [eV/Ang]:
  |   1          0.257538158814845E-23         -0.531691682714519E-23         -0.282428080559982E-02
  |   2         -0.274153523899674E-23         -0.531691682714519E-23          0.282428080559982E-02
 
  ------------------------------------ 
  Start decomposition of the XC Energy 
  ------------------------------------ 
  Hartree-Fock part   :          0.000000000 Ha              0.000000000 eV
  ------------------------------------ 
  X Energy            :       -696.764845862 Ha         -18959.936126840 eV
  C Energy GGA        :        -16.540097751 Ha           -450.078959558 eV
  Total XC Energy     :       -713.304943613 Ha         -19410.015086398 eV
  LDA X and C from self-consistent density 
  X Energy LDA        :       -696.764845862 Ha         -18959.936126840 eV
  C Energy LDA        :        -16.540097751 Ha           -450.078959558 eV
  ------------------------------------ 
  End decomposition of the XC Energy 
  ------------------------------------ 
  Relaxation / MD: End force evaluation.       :  max(cpu_time)    wall_clock(cpu1)
  | Time for this force evaluation             :        0.388 s           0.393 s

------------------------------------------------------------
  Geometry optimization: Attempting to predict improved coordinates.

  Removing unitary transformations (pure translations, rotations) from forces on atoms.
  Atomic forces before filtering:
  | Net force on center of mass :  -.166154E-24 -.106338E-22 0.000000E+00 eV/A
  | Net torque on center of mass:  0.124949E-38 -.655163E-23 0.643344E-93 eV
  Atomic forces after filtering:
  | Net force on center of mass :  0.885445E-39 -.236119E-38 0.000000E+00 eV/A
  | Net torque on center of mass:  0.145476E-38 0.363689E-39 0.602874-109 eV
  Net remaining forces (excluding translations, rotations) in present geometry:
  Maximum force component is  0.282428E-02 eV/A.
  Present geometry is converged.

------------------------------------------------------------
  Final atomic structure:
                         x [A]             y [A]             z [A]
            atom         0.00000000        0.00000000        0.26777568  Au
            atom         0.00000000        0.00000000        2.73222432  Au
------------------------------------------------------------

------------------------------------------------------------------------------
  Final output of selected total energy values:

  The following output summarizes some interesting total energy values
  at the end of a run (AFTER all relaxation, molecular dynamics, etc.).

  | Total energy of the DFT / Hartree-Fock s.c.f. calculation      :       -1070660.446533142 eV
  | Final zero-broadening corrected energy (caution - metals only) :       -1070660.446533142 eV
  | For reference only, the value of 1 Hartree used in FHI-aims is :             27.211384500 eV

  Before relying on these values, please be sure to understand exactly which
  total energy value is referred to by a given number. Different objects may
  all carry the same name 'total energy'. Definitions:

  Total energy of the DFT / Hartree-Fock s.c.f. calculation:
  | Note that this energy does not include ANY quantities calculated after the
  | s.c.f. cycle, in particular not ANY RPA, MP2, etc. many-body perturbation terms.

  Final zero-broadening corrected energy:
  | For metallic systems only, a broadening of the occupation numbers at the Fermi
  | level can be extrapolated back to zero broadening by an electron-gas inspired
  | formula. For all systems that are not real metals, this value can be
  | meaningless and should be avoided.

------------------------------------------------------------------------------

 *** A warning was issued further up regarding the accuracy of onsite integrals.
 *** An integral with a negative eigenvalue was among the flagged integrals.
 *** For "light" settings, this warning is probably harmless.
 *** If you require high (benchmark) accuracy, you may wish to check.
 *** For instance, increase the radial grid density using the "radial_multiplier" variable.

------------------------------------------------------------
          Leaving FHI-aims.
          Date     :  20130814, Time     :  120521.793

          Computational steps:
          | Number of self-consistency cycles          :           84
          | Number of relaxation steps                 :            7

          Detailed time accounting                     :  max(cpu_time)    wall_clock(cpu1)
          | Total time                                 :        3.716 s           3.930 s
          | Preparation time                           :        0.268 s           0.477 s
          | Grid partitioning                          :        0.116 s           0.080 s
          | Preloading free-atom quantities on grid    :        0.028 s           0.025 s
          | Free-atom superposition energy             :        0.020 s           0.017 s
          | Total time for integrations                :        1.172 s           1.053 s
          | Total time for solution of K.-S. equations :        0.380 s           0.243 s
          | Total time for EV reorthonormalization     :        0.016 s           0.030 s
          | Total time for density & force components  :        1.172 s           1.153 s
          | Total time for mixing                      :        0.116 s           0.038 s
          | Total time for Hartree multipole update    :        0.192 s           0.078 s
          | Total time for Hartree multipole sum       :        0.572 s           0.511 s
          | Total time for total energy evaluation     :        0.008 s           0.020 s
          | Total time for scaled ZORA corrections     :        0.000 s           0.000 s

          Have a nice day.
------------------------------------------------------------
