  MPI-parallelism will be employed.
------------------------------------------------------------
          Invoking FHI-aims ...
          Version 081213
          Git rev. (modified): ea1ccc2 Simplified regression tests to avoid sendi[...]
          Compiled on 2013/08/13 at 17:23:57 on host hp83-ekl-12.ictp.it.

          When using FHI-aims, please cite the following reference:

          Volker Blum, Ralf Gehrke, Felix Hanke, Paula Havu,
          Ville Havu, Xinguo Ren, Karsten Reuter, and Matthias Scheffler,
          'Ab Initio Molecular Simulations with Numeric Atom-Centered Orbitals: FHI-aims',
          Computer Physics Communications 180, 2175-2196 (2009)

          For any questions about FHI-aims, please visit the aimsclub website
          with its forums and wiki. Contributions to both the forums and the
          wiki are warmly encouraged - they are for you, and everyone is welcome there.

------------------------------------------------------------

  Date     :  20130814, Time     :  123334.982
  Time zero on CPU 1             :   0.160000000000000E-01  s.
  Internal wall clock time zero  :           145715614.982  s.

  Using        4 parallel tasks.
  Task        0 on host hp83-ekl-12.ictp.it reporting.
  Task        1 on host hp83-ekl-12.ictp.it reporting.
  Task        2 on host hp83-ekl-12.ictp.it reporting.
  Task        3 on host hp83-ekl-12.ictp.it reporting.

  Performing system and environment tests:
  | Environment variable OMP_NUM_THREADS correctly set to 1.
  | Checking for scalapack...
  | Testing pdtran()...
  | All pdtran() tests passed.

  Obtaining array dimensions for all initial allocations:
  
  -----------------------------------------------------------------------
  Parsing control.in (first pass over file, find array dimensions only).
  The contents of control.in will be repeated verbatim below
  unless switched off by setting 'verbatim_writeout .false.' .
  in the first line of control.in .
  -----------------------------------------------------------------------
  
  #########################################################################################
  #
  #  Volker Blum, FHI 2009 : Test run input file control.in for Au dimer
  #
  #########################################################################################
  #
  #  Physical model
  #
    xc                 pw-lda
    spin               none
    relativistic       atomic_zora scalar
    charge             0.
  #
  #  SCF convergence
  #
    occupation_type    gaussian 0.01
    mixer              pulay
      n_max_pulay        10
      charge_mix_param   0.5
    sc_accuracy_rho    1E-5
    sc_accuracy_eev    1E-3
    sc_accuracy_etot   1E-6
    sc_accuracy_forces 1E-4
    sc_iter_limit      100
  #
  #  Relaxation
  #
    relax_geometry   bfgs 5.e-3
  #
  
  ################################################################################
  #
  #  FHI-aims code project
  # Volker Blum, Fritz Haber Institute Berlin, 2009
  #
  #  Suggested "tight" defaults for Au atom (to be pasted into control.in file)
  #
  ################################################################################
    species        Au
  #     global species definitions
      nucleus             79
      mass                196.966569
  #
      l_hartree           6
  #
      cut_pot             4.0  2.0  1.0
      basis_dep_cutoff    1e-4
  #
      radial_base         73 7.0
      radial_multiplier   2
      angular_grids specified
        division   0.3416   50
        division   0.7206  110
        division   1.1171  194
        division   1.2821  302
        division   1.5560  434
  #      division   2.1046  590
  #      division   2.2363  770
  #      division   2.2710  974
  #      division   2.8078 1202
  #      outer_grid 1202
        outer_grid  434
   ################################################################################
  #
  #  Definition of "minimal" basis
  #
  ################################################################################
  #     valence basis states
      valence      6  s   1.
      valence      5  p   6.
      valence      5  d  10.
      valence      4  f  14.
  #     ion occupancy
      ion_occ     6  s   0.
      ion_occ     5  p   6.
      ion_occ     5  d   9.
      ion_occ     4  f   14.
  ################################################################################
  #
  #  Suggested additional basis functions. For production calculations,
  #  uncomment them one after another (the most important basis functions are
  #  listed first).
  #
  #  Constructed for dimers: 2.10, 2.45, 3.00, 4.00 AA
  #
  ################################################################################
  #  "First tier" - max. impr. -161.60  meV, min. impr. -4.53 meV
       ionic 6 p auto
       hydro 4 f 7.4
       ionic 6 s auto
       hydro 5 g 10
       hydro 6 h 12.8
       hydro 3 d 2.5
  #  "Second tier" - max. impr. -2.46  meV, min. impr. -0.28 meV
  #     hydro 5 f 14.8
  #     hydro 4 d 3.9
  #     hydro 3 p 3.3
  #     hydro 1 s 0.45
  #     hydro 5 g 16.4
  #     hydro 6 h 13.6
  #  "Third tier" - max. impr. -0.49  meV, min. impr. -0.09 meV
  #     hydro 4 f 5.2
  #     hydro 4 d 5
  #     hydro 5 g 8
  #     hydro 5 p 8.2
  #     hydro 6 d 12.4
  #     hydro 6 s 14.8
  #  Further basis functions: -0.08 meV and below
  #     hydro 5 f 18.8
  #     hydro 5 g 20
  #    hydro 5 g 15.2
  
  -----------------------------------------------------------------------
  Completed first pass over input file control.in .
  -----------------------------------------------------------------------
  
  
  -----------------------------------------------------------------------
  Parsing geometry.in (first pass over file, find array dimensions only).
  The contents of geometry.in will be repeated verbatim below
  unless switched off by setting 'verbatim_writeout .false.' .
  in the first line of geometry.in .
  -----------------------------------------------------------------------
  
  #
  # This is the geometry file that corresponds to the current relaxation step.
  # If you do not want this file to be written, set the "write_restart_geometry" flag to .false.
  #
  atom       0.00000000      0.00000000      0.26777568 Au
  atom       0.00000000      0.00000000      2.73222432 Au
  #
  # What follows is the current estimated Hessian matrix constructed by the BFGS algorithm.
  # This is NOT the true Hessian matrix of the system.
  # If you do not want this information here, switch it off using the "hessian_to_restart_geometry" keyword.
  #
  trust_radius             0.1000000015
  hessian_block                1       1           2.000000           0.000000           0.000000           0.000000           2.00000
  hessian_block                1       2           0.000000           0.000000           0.000000           0.000000           0.00000
  hessian_block                2       2           2.000000           0.000000           0.000000           0.000000           2.00000
  
  -----------------------------------------------------------------------
  Completed first pass over input file geometry.in .
  -----------------------------------------------------------------------
  
 
  Basic array size parameters: 
  | Number of species                 :        1
  | Number of atoms                   :        2
  | Max. basis fn. angular momentum   :        5
  | Max. atomic/ionic basis occupied n:        6
  | Max. number of basis fn. types    :        3
  | Max. radial fns per species/type  :       14
  | Max. logarithmic grid size        :     1488
  | Max. radial integration grid size :      147
  | Max. angular integration grid size:      434
  | Max. angular grid division number :        8
  | Radial grid for Hartree potential :     1488
  | Number of spin channels           :        1

------------------------------------------------------------
          Reading file control.in.
------------------------------------------------------------
  XC: Using Perdew-Wang parametrisation of Ceperley-Alder LDA.
  Spin treatment: No spin polarisation.
  Scalar relativistic treatment of kinetic energy: on-site free-atom approximation to ZORA.
  Charge =   0.000000E+00: Neutral system requested explicitly.
  Occupation type: Gaussian broadening, width =   0.100000E-01 eV.
  Using pulay charge density mixing.
  Pulay mixing - number of memorized iterations:   10
  Charge density mixing - mixing parameter:     0.5000
  Convergence accuracy of self-consistent charge density: 0.1000E-04
  Convergence accuracy of sum of eigenvalues: 0.1000E-02
  Convergence accuracy of total energy: 0.1000E-05
  Convergence accuracy of forces: 0.1000E-03
  Maximum number of s.-c. iterations  :   100
  Geometry relaxation: Modified BFGS - TRM (trust radius method, i.e., trusted quadratic extrapolation).
  Convergence accuracy for geometry relaxation: Maximum force <   0.500000E-02 eV/A.
 
  Reading configuration options for species Au                  .
  | Found nuclear charge :  79.0000
  | Found atomic mass :    196.966569000000      amu
  | Found l_max for Hartree potential  :   6
  | Found cutoff potl. onset [A], width [A], scale factor :    4.00000    2.00000    1.00000
  | Threshold for basis-dependent cutoff potential is   0.100000E-03
  | Found data for basic radial integration grid :    73 points, outermost radius =    7.000 A
  | Found multiplier for basic radial grid :   2
  | Found angular grid specification: user-specified.
  | Specified grid contains     6 separate shells.
  | Check grid settings after all constraints further below.
  | Found free-atom valence shell :  6 s   1.000
  | Found free-atom valence shell :  5 p   6.000
  | Found free-atom valence shell :  5 d  10.000
  | Found free-atom valence shell :  4 f  14.000
  | Found free-ion valence shell :  6 s   0.000
  | Found free-ion valence shell :  5 p   6.000
  | Found free-ion valence shell :  5 d   9.000
  | Found free-ion valence shell :  4 f  14.000
  | Found ionic basis function :  6 p , default cutoff radius.
  | Found hydrogenic basis function :  4 f   7.400
  | Found ionic basis function :  6 s , default cutoff radius.
  | Found hydrogenic basis function :  5 g  10.000
  | Found hydrogenic basis function :  6 h  12.800
  | Found hydrogenic basis function :  3 d   2.500
  Species Au                  : Missing cutoff potential type.
  Defaulting to exp(1/x)/(1-x)^2 type cutoff potential.
  Species Au: No 'logarithmic' tag. Using default grid for free atom:
  | Default logarithmic grid data [bohr] : 0.1000E-03 0.1000E+03 0.1012E+01
  | Will include ionic basis functions of  2.0-fold positive Au                   ion.
  Species Au: On-site basis accuracy parameter (for Gram-Schmidt orthonormalisation) not specified.
  Using default value basis_acc =  0.1000000E-03.
  Species Au                  : Using default innermost maximum threshold i_radial=  2 for radial functions.
  Species Au                  : Default cutoff onset for free atom density etc. : 0.40000000E+01 AA.
  Species Au                  : Basic radial grid will be enhanced according to radial_multiplier =   2, to contain   147 grid points.
 
  Finished reading input file 'control.in'. Consistency checks are next.
 
  Target number of points in a grid batch is not set. Defaulting to  100
  Method for grid partitioning is not set. Defaulting to parallel hash+maxmin partitioning.
  Batch size limit is not set. Defaulting to    200
  By default, will store active basis functions for each batch.
  If in need of memory, prune_basis_once .false. can be used to disable this option.
  communication_type for Hartree potential was not specified.
  Defaulting to calc_hartree .
  Pulay mixer: Number of initial linear mixing iterations not set.
  Defaulting to    0 iterations.
  Work space size for distributed Hartree potential not set.
  Defaulting to   0.200000E+03 MB.
  Algorithm-dependent basis array size parameters:
  | n_max_pulay                         :       10
  No maximum number of relaxation steps, defaulting to     1000
  Using explicit Hessian from geometry.in.
  No maximum energy tolerance for TRM/BFGS moves, defaulting to   0.200000E-03
  No harmonic length scale. Defaulting to   0.250000E-01 A.
  No trust radius initializer. Defaulting to   0.200000E+00 A.
  Handling of forces: Unphysical translation and rotation will be removed from forces.
  No accuracy limit for integral partition fn. given. Defaulting to 0.1000E-14.
  No threshold value for u(r) in integrations given. Defaulting to 0.1000E-05.
  No accuracy for occupation numbers given. Defaulting to 0.1000E-07.
  No threshold value for occupation numbers given. Defaulting to 0.0000E+00.
  No accuracy for fermi level given. Defaulting to 0.1000E-19.
  Maximum # of iterations to find E_F not set. Defaulting to  200.
  Preferred method for the eigenvalue solver ('KS_method') not specified in 'control.in'.
  Calling blacs routine to test compilation state
  Since scalapack support is enabled, defaulting to 'elpa'.
  Will not use alltoall communication since running on < 1024 CPUs.
  Threshold for basis singularities not set.
  Default threshold for basis singularities: 0.1000E-04
  partition_type (choice of integration weights) for integrals was not specified.
  | Using a version of the partition function of Stratmann and coworkers ('stratmann_smoother').
  | At each grid point, the set of atoms used to build the partition table is smoothly restricted to
  | only those atoms whose free-atom density would be non-zero at that grid point.
  Partitioning for Hartree potential was not defined. Using partition_type for integrals.
  | Adjusted default value of keyword multip_moments_threshold to:       0.10000000E-11
  | This value may affect high angular momentum components of the Hartree potential in periodic systems.
  No q(lm)/r^(l+1) cutoff set for long-range Hartree potential.
  | Using default value of  0.100000E-09 .
  | Verify using the multipole_threshold keyword.
  Defaulting to new monopole extrapolation.
  Density update method: automatic selection selected.
  Geometry relaxation: A file "geometry.in.next_step" is written out by default after each step.
  | This file contains the geometry of the current relaxation step as well as
  | the current Hessian matrix needed to restart the relaxation algorithm.
  | If you do not want part or all of this information, use the keywords
  | "write_restart_geometry" or "hessian_to_restart_geometry" to switch the output off.
------------------------------------------------------------


------------------------------------------------------------
          Reading geometry description geometry.in.
------------------------------------------------------------
  Input structure read successfully.
  The structure contains        2 atoms,  and a total of        158.000 electrons.

  Input geometry:
  | No unit cell requested.
  | Atomic structure:
  |       Atom                x [A]            y [A]            z [A]
  |    1: Species Au             0.000000         0.000000         0.267776
  |    2: Species Au             0.000000         0.000000         2.732224
  |

  | The smallest distance between any two atoms is         2.46444864 AA.
  |
  | The first atom of this pair is atom number                      1 .
  | The second atom of this pair is atom number                     2 .

  Number of empty states per atom not set in control.in - providing a guess from actual geometry.
  | Total number of empty states used during s.c.f. cycle:       18
  If you use a very high smearing, use empty_states (per atom!) in control.in to increase this value.

  Structure-dependent array size parameters: 
  | Maximum number of distinct radial functions  :       20
  | Maximum number of basis functions            :      152
  | Number of Kohn-Sham states (occupied + empty):       97
------------------------------------------------------------

------------------------------------------------------------
          Preparing all fixed parts of the calculation.
------------------------------------------------------------
  Determining machine precision:
    2.225073858507201E-308
  Setting up grids for atomic and cluster calculations.

  Creating wave function, potential, and density for free atoms.

  Species: Au

  List of occupied orbitals and eigenvalues:
    n    l              occ      energy [Ha]    energy [eV]
    1    0           2.0000     -3253.504221    -88532.3543
    2    0           2.0000      -533.272878    -14511.0933
    3    0           2.0000      -124.133751     -3377.8512
    4    0           2.0000       -26.800728      -729.2849
    5    0           2.0000        -3.992501      -108.6415
    6    0           1.0000        -0.222361        -6.0508
    2    1           6.0000      -460.272909    -12524.6631
    3    1           6.0000      -103.428411     -2814.4303
    4    1           6.0000       -20.054932      -545.7225
    5    1           6.0000        -2.203250       -59.9535
    3    2          10.0000       -81.378267     -2214.4153
    4    2          10.0000       -11.977320      -325.9195
    5    2          10.0000        -0.260924        -7.1001
    4    3          14.0000        -3.005792       -81.7918

  Creating fixed part of basis set: Ionic, confined, hydrogenic.
 
  Au                   ion:

  List of free ionic orbitals and eigenvalues:
    n    l      energy [Ha]    energy [eV]
    1    0     -3254.377409    -88556.1150
    2    0      -534.086180    -14533.2244
    3    0      -124.937984     -3399.7355
    4    0       -27.602784      -751.1100
    5    0        -4.790082      -130.3448
    2    1      -461.084679    -12546.7525
    3    1      -104.232198     -2836.3024
    4    1       -20.856809      -567.5427
    5    1        -2.996012       -81.5256
    3    2       -82.181550     -2236.2738
    4    2       -12.778936      -347.7325
    5    2        -1.015310       -27.6280
    4    3        -3.806916      -103.5915


  List of ionic basis orbitals and eigenvalues:
    n    l      energy [Ha]    energy [eV]    outer radius [A]
    6    1        -0.543848       -14.7989       5.411271
    6    0        -0.850631       -23.1468       5.028562

 
  Au                   hydrogenic:
 
  List of hydrogenic basis orbitals: 
    n    l      effective z      eigenvalue [eV]  inner max. [A]     outer max. [A]     outer radius [A]   
    4    3         7.400000       -46.5653           1.145580           1.145580           4.907105
    5    4        10.000000       -54.4226           1.326589           1.326589           5.028562
    6    5        12.800000       -61.9208           1.480879           1.480879           5.153025
    3    2         2.500000        -9.3396           1.868078           1.868078           5.477829
 

  Adding cutoff potential to free-atom effective potential.
  Creating atomic-like basis functions for current effective potential.

  Species Au                  :

  List of atomic basis orbitals and eigenvalues:
    n    l      energy [Ha]    energy [eV]    outer radius [A]
    1    0     -3253.504221    -88532.3543       0.120816
    2    0      -533.272878    -14511.0933       0.313506
    3    0      -124.133751     -3377.8512       0.660860
    4    0       -26.800728      -729.2849       1.376144
    5    0        -3.992501      -108.6415       3.318406
    6    0        -0.222361        -6.0508       5.411271
    2    1      -460.272909    -12524.6631       0.329217
    3    1      -103.428411     -2814.4303       0.702515
    4    1       -20.054932      -545.7225       1.536198
    5    1        -2.203250       -59.9535       4.237546
    3    2       -81.378267     -2214.4153       0.755981
    4    2       -11.977320      -325.9195       1.868078
    5    2        -0.260924        -7.1001       5.345521
    4    3        -3.005792       -81.7918       3.160040

  Assembling full basis from fixed parts.
  | Species Au :   atomic orbital   1 s accepted.
  | Species Au :   atomic orbital   2 s accepted.
  | Species Au :   atomic orbital   3 s accepted.
  | Species Au :   atomic orbital   4 s accepted.
  | Species Au :   atomic orbital   5 s accepted.
  | Species Au :    ionic orbital   6 s accepted.
  | Species Au :   atomic orbital   6 s accepted.
  | Species Au :   atomic orbital   2 p accepted.
  | Species Au :   atomic orbital   3 p accepted.
  | Species Au :   atomic orbital   4 p accepted.
  | Species Au :   atomic orbital   5 p accepted.
  | Species Au :    ionic orbital   6 p accepted.
  | Species Au :   atomic orbital   3 d accepted.
  | Species Au :   atomic orbital   4 d accepted.
  | Species Au :   atomic orbital   5 d accepted.
  | Species Au :    hydro orbital   3 d accepted.
  | Species Au :   atomic orbital   4 f accepted.
  | Species Au :    hydro orbital   4 f accepted.
  | Species Au :    hydro orbital   5 g accepted.
  | Species Au :    hydro orbital   6 h accepted.
 
  Basis size parameters after reduction:
  | Total number of radial functions:       20
  | Total number of basis functions :      152
 
  Testing on-site integration grid accuracy.
  |  Species  Function  <phi|h_atom|phi> (log., in eV)  <phi|h_atom|phi> (rad., in eV)
           1        1             -88532.3543419992             -88532.3343936621
           1        2             -14511.0933175829             -14511.0929189747
           1        3              -3377.8512299488              -3377.8511931876
           1        4               -729.2849102997               -729.2849026383
           1        5               -108.6414693839               -108.6414672425
           1        6                 -5.4446658751                 -5.4446655127
           1        7                  5.1472665138                  5.1472765889
           1        8             -12524.6631134573             -12524.6631049383
           1        9              -2814.4302518233              -2814.4302395519
           1       10               -545.7224734400               -545.7224683456
           1       11                -59.9534842779                -59.9534829447
           1       12                  0.5979237008                  0.5979236526
           1       13              -2214.4153252778              -2214.4153210371
           1       14               -325.9194533093               -325.9194508115
           1       15                 -7.1001748465                 -7.1001744710
           1       16                  5.6255798224                  5.6255907370
           1       17                -81.7917639572                -81.7917634432
           1       18                 21.3101330483                 21.3101329864
           1       19                 37.1289775966                 37.1289776743
           1       20                 49.7708827148                 49.7708830610

  Preparing densities etc. for the partition functions (integrals / Hartree potential).

  Preparations completed.
  max(cpu_time)          :      0.272 s.
  Wall clock time (cpu1) :      0.289 s.
------------------------------------------------------------

------------------------------------------------------------
          Begin self-consistency loop: Initialization.

          Date     :  20130814, Time     :  123335.327
------------------------------------------------------------

  Initializing index lists of integration centers etc. from given atomic structure:
  | Number of centers in hartree potential         :         2
  | Number of centers in hartree multipole         :         2
  | Number of centers in electron density summation:         2
  | Number of centers in basis integrals           :         2
  | Number of centers in integrals                 :         2
  Initializing relaxation algorithms.
  Using modified Scalapack Eigenvalue solver (ELPA)
  * Using 4 tasks for Scalapack Eigenvalue solver.
  Detailed listing of tasks and assigned k-points:
  (for non-periodic systems, the "k-point" denotes an internal label only)
   Task     0 k-point     1 on hp83-ekl-12.ictp.it
   Task     1 k-point     1 on hp83-ekl-12.ictp.it
   Task     2 k-point     1 on hp83-ekl-12.ictp.it
   Task     3 k-point     1 on hp83-ekl-12.ictp.it
  Tasks:     4 split into      2 X      2 BLACS grid
  Calculating blocksize based on n_basis =          152 max_nprow =            2 max_npcol =            2
  Scalapack blocksize set to:           16
  Required Scalapack workspace - INTEGER:            1 REAL:             1
  Partitioning the integration grid into batches with parallel hashing+maxmin method.
  | Number of batches:      767
  | Maximal batch size:     125
  | Minimal batch size:      51
  | Average batch size:      76.115
  | Standard deviation of batch sizes:      24.713

  Integration load balanced across     4 MPI tasks.
  Work distribution over tasks is as follows:
  Task     0 has      14602 integration points.
  Task     1 has      14536 integration points.
  Task     2 has      14603 integration points.
  Task     3 has      14639 integration points.
  Initializing partition tables, free-atom densities, potentials, etc. across the integration grid (initialize_grid_storage).
  | initialize_grid_storage: Actual outermost partition radius vs. multipole_radius_free
  | (-- VB: in principle, multipole_radius_free should be larger, hence this output)
  | Species        1: outer_partition_radius =              6.000000000000000 AA, multipole_radius_free =              6.040632965187119 AA.
  | Original list of interatomic distances with           2 x          2 entries is created.
  | Net number of integration points:    58380
  | of which are non-zero points    :    56742
  Obtaining max. number of non-zero basis functions in each batch (get_n_compute_maxes).
  | Maximal number of non-zero basis functions:      136 in task     0
  | Maximal number of non-zero basis functions:      136 in task     1
  | Maximal number of non-zero basis functions:      134 in task     2
  | Maximal number of non-zero basis functions:      134 in task     3
  Selecting the method for density update.
  Loop over occupied states selected for charge density update.
  Integrating Hamiltonian matrix: batch-based integration.
  Time summed over all CPUs for integration: real work        0.187 s, elapsed        0.189 s
  Integrating overlap matrix.
  Time summed over all CPUs for integration: real work        0.131 s, elapsed        0.133 s
  Deallocating overlap matrix.

  Updating Kohn-Sham eigenvalues, eigenvectors, occupation numbers, and Fermi level.
  Solving generalized eigenproblem
  Solving real symmetric generalised eigenvalue problem by standard ScaLAPACK.
  Transforming overlap matrix with ScaLAPACK and checking for singularities.
  : Overlap matrix is nonsingular, using Cholesky decomposition
  | Lowest eigenvalue:  0.233474E-01
  Factoring overlap matrix with Cholesky decomposition
  Using Cholesky factor for transformation
  Using 1-stage real ELPA solver
  Determining occupation numbers for Kohn-Sham eigenstates.
  | Chemical potential (Fermi level) in eV                 : -.51649380E+01
  | Error in electron count due to remaining E_F inaccuracy: 0.00000000E+00
  | Maximum occupation number of highest empty state:  0.00E+00

  Writing Kohn-Sham eigenvalues.

  State    Occupation    Eigenvalue [Ha]    Eigenvalue [eV]
      1       2.00000       -3253.506869       -88532.42638
      2       2.00000       -3253.506869       -88532.42638
      3       2.00000        -533.275532       -14511.16554
      4       2.00000        -533.275532       -14511.16554
      5       2.00000        -460.275569       -12524.73548
      6       2.00000        -460.275569       -12524.73548
      7       2.00000        -460.275559       -12524.73522
      8       2.00000        -460.275559       -12524.73522
      9       2.00000        -460.275559       -12524.73522
     10       2.00000        -460.275559       -12524.73522
     11       2.00000        -124.136444        -3377.92451
     12       2.00000        -124.136444        -3377.92451
     13       2.00000        -103.431156        -2814.50495
     14       2.00000        -103.431156        -2814.50495
     15       2.00000        -103.431080        -2814.50288
     16       2.00000        -103.431080        -2814.50288
     17       2.00000        -103.431080        -2814.50288
     18       2.00000        -103.431080        -2814.50288
     19       2.00000         -81.380984        -2214.48925
     20       2.00000         -81.380984        -2214.48925
     21       2.00000         -81.380969        -2214.48883
     22       2.00000         -81.380969        -2214.48883
     23       2.00000         -81.380969        -2214.48883
     24       2.00000         -81.380969        -2214.48883
     25       2.00000         -81.380924        -2214.48761
     26       2.00000         -81.380924        -2214.48761
     27       2.00000         -81.380924        -2214.48761
     28       2.00000         -81.380924        -2214.48761
     29       2.00000         -26.803602         -729.36313
     30       2.00000         -26.803602         -729.36313
     31       2.00000         -20.058131         -545.80951
     32       2.00000         -20.058131         -545.80951
     33       2.00000         -20.057697         -545.79771
     34       2.00000         -20.057697         -545.79771
     35       2.00000         -20.057697         -545.79771
     36       2.00000         -20.057697         -545.79771
     37       2.00000         -11.980523         -326.00662
     38       2.00000         -11.980523         -326.00661
     39       2.00000         -11.980379         -326.00269
     40       2.00000         -11.980379         -326.00269
     41       2.00000         -11.980379         -326.00269
     42       2.00000         -11.980379         -326.00269
     43       2.00000         -11.980033         -325.99330
     44       2.00000         -11.980033         -325.99330
     45       2.00000         -11.980033         -325.99330
     46       2.00000         -11.980033         -325.99330
     47       2.00000          -3.997007         -108.76409
     48       2.00000          -3.996230         -108.74295
     49       2.00000          -3.009212          -81.88482
     50       2.00000          -3.009091          -81.88154
     51       2.00000          -3.009080          -81.88123
     52       2.00000          -3.009080          -81.88123
     53       2.00000          -3.009028          -81.87981
     54       2.00000          -3.009028          -81.87981
     55       2.00000          -3.008814          -81.87398
     56       2.00000          -3.008813          -81.87398
     57       2.00000          -3.008804          -81.87373
     58       2.00000          -3.008804          -81.87372
     59       2.00000          -3.008478          -81.86486
     60       2.00000          -3.008478          -81.86486
     61       2.00000          -3.008477          -81.86484
     62       2.00000          -3.008477          -81.86484
     63       2.00000          -2.217177          -60.33246
     64       2.00000          -2.207436          -60.06738
     65       2.00000          -2.207436          -60.06738
     66       2.00000          -2.206192          -60.03353
     67       2.00000          -2.206192          -60.03353
     68       2.00000          -2.204571          -59.98944
     69       2.00000          -0.352020           -9.57896
     70       2.00000          -0.306856           -8.34997
     71       2.00000          -0.306856           -8.34997
     72       2.00000          -0.272328           -7.41041
     73       2.00000          -0.272328           -7.41041
     74       2.00000          -0.261132           -7.10577
     75       2.00000          -0.257653           -7.01109
     76       2.00000          -0.257653           -7.01109
     77       2.00000          -0.237905           -6.47372
     78       2.00000          -0.236923           -6.44701
     79       2.00000          -0.236923           -6.44701
     80       0.00000          -0.158086           -4.30173
     81       0.00000          -0.025180           -0.68518
     82       0.00000          -0.025180           -0.68518
     83       0.00000          -0.010927           -0.29733
     84       0.00000           0.060476            1.64565
     85       0.00000           0.060476            1.64565
     86       0.00000           0.158502            4.31307
     87       0.00000           0.164070            4.46458
     88       0.00000           0.169998            4.62589
     89       0.00000           0.169998            4.62589
     90       0.00000           0.239523            6.51774
     91       0.00000           0.239523            6.51774
     92       0.00000           0.263504            7.17031
     93       0.00000           0.263504            7.17032
     94       0.00000           0.267196            7.27077
     95       0.00000           0.355960            9.68616
     96       0.00000           0.355960            9.68616
     97       0.00000           0.359541            9.78360

  Highest occupied state (VBM) at     -6.44700889 eV
  | Occupation number:      2.00000000

  Lowest unoccupied state (CBM) at    -4.30173115 eV
  | Occupation number:      0.00000000

  Overall HOMO-LUMO gap:      2.14527774 eV.
  Calculating total energy contributions from superposition of free atom densities.

  Total energy components:
  | Sum of eigenvalues            :      -24756.01732485 Ha     -673645.50611518 eV
  | XC energy correction          :        -713.35184373 Ha      -19411.29130362 eV
  | XC potential correction       :         947.06637427 Ha       25770.98725739 eV
  | Free-atom electrostatic energy:      -14823.76841257 Ha     -403375.26201334 eV
  | Hartree energy correction     :           0.00000000 Ha           0.00000000 eV
  | Entropy correction            :           0.00000000 Ha           0.00000000 eV
  | ---------------------------
  | Total energy                  :      -39346.07120688 Ha    -1070661.07217475 eV
  | Total energy, T -> 0          :      -39346.07120688 Ha    -1070661.07217475 eV  <-- do not rely on this value for anything but (periodic) metals
  | Electronic free energy        :      -39346.07120688 Ha    -1070661.07217475 eV

  Derived energy quantities:
  | Kinetic energy                :       44141.15975348 Ha     1201142.07032795 eV
  | Electrostatic energy          :      -82773.87911663 Ha    -2252391.85119909 eV
  | Energy correction for multipole
  | error in Hartree potential    :           0.00000000 Ha           0.00000000 eV
  | Sum of eigenvalues per atom                           :     -336822.75305759 eV
  | Total energy (T->0) per atom                          :     -535330.53608738 eV  <-- do not rely on this value for anything but (periodic) metals
  | Electronic free energy per atom                       :     -535330.53608738 eV
  Initialize hartree_potential_storage
  Max. number of atoms included in rho_multipole:            2

  End scf initialization - timings             :  max(cpu_time)    wall_clock(cpu1)
  | Time for scf. initialization               :        0.136 s           0.135 s
  | Boundary condition initialization          :        0.000 s           0.000 s
  | Relaxation initialization                  :        0.000 s           0.000 s
  | Integration                                :        0.084 s           0.081 s
  | Solution of K.-S. eqns.                    :        0.008 s           0.006 s
  | Grid partitioning                          :        0.024 s           0.021 s
  | Preloading free-atom quantities on grid    :        0.012 s           0.009 s
  | Free-atom superposition energy             :        0.008 s           0.006 s
  | Total energy evaluation                    :        0.000 s           0.000 s
------------------------------------------------------------

------------------------------------------------------------
          Begin self-consistency iteration #    1

  Date     :  20130814, Time     :  123335.462
------------------------------------------------------------
  Evaluating new KS density.
  Integration grid: deviation in total charge (<rho> - N_e) =  -1.136868E-13
  Pulay mixing of updated and previous charge densities.

  Evaluating partitioned Hartree potential by multipole expansion.
  | Analytical far-field extrapolation by fixed multipoles:
  | Hartree multipole sum: apparent total charge =  -0.667509E-06
  Summing up the Hartree potential.
  Time summed over all CPUs for potential: real work        0.077 s, elapsed        0.089 s
  | RMS charge density error from multipole expansion :   0.893489E-03

  Integrating Hamiltonian matrix: batch-based integration.
  Time summed over all CPUs for integration: real work        0.187 s, elapsed        0.188 s

  Updating Kohn-Sham eigenvalues, eigenvectors, occupation numbers, and Fermi level.
  Solving generalized eigenproblem
  Solving real symmetric generalised eigenvalue problem by standard ScaLAPACK.
  Using Cholesky factor for transformation
  Using 1-stage real ELPA solver
  Determining occupation numbers for Kohn-Sham eigenstates.
  | Chemical potential (Fermi level) in eV                 : -.56215014E+01
  | Error in electron count due to remaining E_F inaccuracy: 0.00000000E+00
  | Maximum occupation number of highest empty state:  0.00E+00

  Writing Kohn-Sham eigenvalues.

  State    Occupation    Eigenvalue [Ha]    Eigenvalue [eV]
      1       2.00000       -3253.538819       -88533.29579
      2       2.00000       -3253.538819       -88533.29579
      3       2.00000        -533.307486       -14512.03505
      4       2.00000        -533.307486       -14512.03505
      5       2.00000        -460.307665       -12525.60886
      6       2.00000        -460.307665       -12525.60886
      7       2.00000        -460.307567       -12525.60621
      8       2.00000        -460.307567       -12525.60621
      9       2.00000        -460.307567       -12525.60621
     10       2.00000        -460.307567       -12525.60621
     11       2.00000        -124.165974        -3378.72805
     12       2.00000        -124.165974        -3378.72805
     13       2.00000        -103.460838        -2815.31265
     14       2.00000        -103.460838        -2815.31265
     15       2.00000        -103.460838        -2815.31265
     16       2.00000        -103.460838        -2815.31265
     17       2.00000        -103.460163        -2815.29428
     18       2.00000        -103.460163        -2815.29428
     19       2.00000         -81.411188        -2215.31115
     20       2.00000         -81.411188        -2215.31115
     21       2.00000         -81.411188        -2215.31115
     22       2.00000         -81.411188        -2215.31115
     23       2.00000         -81.410678        -2215.29727
     24       2.00000         -81.410678        -2215.29727
     25       2.00000         -81.410645        -2215.29637
     26       2.00000         -81.410645        -2215.29637
     27       2.00000         -81.410645        -2215.29637
     28       2.00000         -81.410645        -2215.29637
     29       2.00000         -26.829577         -730.06995
     30       2.00000         -26.829577         -730.06995
     31       2.00000         -20.083932         -546.51161
     32       2.00000         -20.083932         -546.51161
     33       2.00000         -20.083177         -546.49105
     34       2.00000         -20.083177         -546.49105
     35       2.00000         -20.083177         -546.49105
     36       2.00000         -20.083177         -546.49105
     37       2.00000         -12.006412         -326.71109
     38       2.00000         -12.006412         -326.71108
     39       2.00000         -12.005564         -326.68803
     40       2.00000         -12.005564         -326.68803
     41       2.00000         -12.005564         -326.68803
     42       2.00000         -12.005564         -326.68803
     43       2.00000         -12.005059         -326.67428
     44       2.00000         -12.005059         -326.67428
     45       2.00000         -12.005059         -326.67428
     46       2.00000         -12.005059         -326.67428
     47       2.00000          -4.014944         -109.25219
     48       2.00000          -4.014226         -109.23264
     49       2.00000          -3.034567          -82.57476
     50       2.00000          -3.034451          -82.57163
     51       2.00000          -3.034113          -82.56242
     52       2.00000          -3.034113          -82.56242
     53       2.00000          -3.034065          -82.56111
     54       2.00000          -3.034065          -82.56111
     55       2.00000          -3.033163          -82.53656
     56       2.00000          -3.033163          -82.53656
     57       2.00000          -3.033155          -82.53634
     58       2.00000          -3.033155          -82.53633
     59       2.00000          -3.032601          -82.52126
     60       2.00000          -3.032601          -82.52126
     61       2.00000          -3.032600          -82.52125
     62       2.00000          -3.032600          -82.52125
     63       2.00000          -2.236967          -60.87096
     64       2.00000          -2.225208          -60.55099
     65       2.00000          -2.219621          -60.39896
     66       2.00000          -2.219621          -60.39896
     67       2.00000          -2.218476          -60.36779
     68       2.00000          -2.218476          -60.36779
     69       2.00000          -0.354265           -9.64004
     70       2.00000          -0.310139           -8.43932
     71       2.00000          -0.310139           -8.43932
     72       2.00000          -0.273296           -7.43677
     73       2.00000          -0.273296           -7.43677
     74       2.00000          -0.260155           -7.07918
     75       2.00000          -0.260155           -7.07918
     76       2.00000          -0.254105           -6.91455
     77       2.00000          -0.248617           -6.76522
     78       2.00000          -0.248617           -6.76522
     79       2.00000          -0.246051           -6.69539
     80       0.00000          -0.173518           -4.72166
     81       0.00000          -0.018069           -0.49168
     82       0.00000          -0.017568           -0.47804
     83       0.00000          -0.017568           -0.47804
     84       0.00000           0.059914            1.63034
     85       0.00000           0.059914            1.63034
     86       0.00000           0.151516            4.12296
     87       0.00000           0.169947            4.62450
     88       0.00000           0.177116            4.81957
     89       0.00000           0.177116            4.81957
     90       0.00000           0.239346            6.51293
     91       0.00000           0.239346            6.51293
     92       0.00000           0.263878            7.18050
     93       0.00000           0.265358            7.22077
     94       0.00000           0.265359            7.22078
     95       0.00000           0.355885            9.68413
     96       0.00000           0.359998            9.79605
     97       0.00000           0.359998            9.79605

  Highest occupied state (VBM) at     -6.69538860 eV
  | Occupation number:      2.00000000

  Lowest unoccupied state (CBM) at    -4.72166185 eV
  | Occupation number:      0.00000000

  Overall HOMO-LUMO gap:      1.97372676 eV.

  Total energy components:
  | Sum of eigenvalues            :      -24759.66471527 Ha     -673744.75665816 eV
  | XC energy correction          :        -713.23350608 Ha      -19408.07117222 eV
  | XC potential correction       :         946.90965984 Ha       25766.72284058 eV
  | Free-atom electrostatic energy:      -14823.76841257 Ha     -403375.26201334 eV
  | Hartree energy correction     :           3.70051165 Ha         100.69604543 eV
  | Entropy correction            :           0.00000000 Ha           0.00000000 eV
  | ---------------------------
  | Total energy                  :      -39346.05646242 Ha    -1070660.67095771 eV
  | Total energy, T -> 0          :      -39346.05646242 Ha    -1070660.67095771 eV  <-- do not rely on this value for anything but (periodic) metals
  | Electronic free energy        :      -39346.05646242 Ha    -1070660.67095771 eV

  Derived energy quantities:
  | Kinetic energy                :       44139.81144646 Ha     1201105.38102716 eV
  | Electrostatic energy          :      -82772.63440280 Ha    -2252357.98081265 eV
  | Energy correction for multipole
  | error in Hartree potential    :          -0.00187104 Ha          -0.05091353 eV
  | Sum of eigenvalues per atom                           :     -336872.37832908 eV
  | Total energy (T->0) per atom                          :     -535330.33547885 eV  <-- do not rely on this value for anything but (periodic) metals
  | Electronic free energy per atom                       :     -535330.33547885 eV

  Self-consistency convergence accuracy:
  | Change of charge density      : 0.1259E+00
  | Change of sum of eigenvalues  : -.9925E+02 eV
  | Change of total energy        : 0.4012E+00 eV

  End self-consistency iteration #     1       :  max(cpu_time)    wall_clock(cpu1)
  | Time for this iteration                    :        0.108 s           0.109 s
  | Charge density update                      :        0.032 s           0.033 s
  | Density mixing                             :        0.000 s           0.000 s
  | Hartree multipole update                   :        0.004 s           0.002 s
  | Hartree multipole summation                :        0.024 s           0.023 s
  | Integration                                :        0.048 s           0.048 s
  | Solution of K.-S. eqns.                    :        0.004 s           0.002 s
  | Total energy evaluation                    :        0.000 s           0.000 s
------------------------------------------------------------

------------------------------------------------------------
          Begin self-consistency iteration #    2

  Date     :  20130814, Time     :  123335.571
------------------------------------------------------------
  Evaluating new KS density.
  Integration grid: deviation in total charge (<rho> - N_e) =   3.979039E-13
  Pulay mixing of updated and previous charge densities.

  Evaluating partitioned Hartree potential by multipole expansion.
  | Analytical far-field extrapolation by fixed multipoles:
  | Hartree multipole sum: apparent total charge =  -0.977154E-06
  Summing up the Hartree potential.
  Time summed over all CPUs for potential: real work        0.073 s, elapsed        0.073 s
  | RMS charge density error from multipole expansion :   0.100637E-02

  Integrating Hamiltonian matrix: batch-based integration.
  Time summed over all CPUs for integration: real work        0.186 s, elapsed        0.188 s

  Updating Kohn-Sham eigenvalues, eigenvectors, occupation numbers, and Fermi level.
  Solving generalized eigenproblem
  Solving real symmetric generalised eigenvalue problem by standard ScaLAPACK.
  Using Cholesky factor for transformation
  Using 1-stage real ELPA solver
  Determining occupation numbers for Kohn-Sham eigenstates.
  | Chemical potential (Fermi level) in eV                 : -.55757812E+01
  | Error in electron count due to remaining E_F inaccuracy: 0.00000000E+00
  | Maximum occupation number of highest empty state:  0.00E+00

  Highest occupied state (VBM) at     -6.55539261 eV
  | Occupation number:      2.00000000

  Lowest unoccupied state (CBM) at    -4.58144038 eV
  | Occupation number:      0.00000000

  Overall HOMO-LUMO gap:      1.97395223 eV.

  Total energy components:
  | Sum of eigenvalues            :      -24757.69826359 Ha     -673691.24678554 eV
  | XC energy correction          :        -713.28604490 Ha      -19409.50082616 eV
  | XC potential correction       :         946.97920998 Ha       25768.61539623 eV
  | Free-atom electrostatic energy:      -14823.76841257 Ha     -403375.26201334 eV
  | Hartree energy correction     :           1.71855674 Ha          46.76430814 eV
  | Entropy correction            :           0.00000000 Ha           0.00000000 eV
  | ---------------------------
  | Total energy                  :      -39346.05495434 Ha    -1070660.62992067 eV
  | Total energy, T -> 0          :      -39346.05495434 Ha    -1070660.62992067 eV  <-- do not rely on this value for anything but (periodic) metals
  | Electronic free energy        :      -39346.05495434 Ha    -1070660.62992067 eV

  Derived energy quantities:
  | Kinetic energy                :       44140.69574906 Ha     1201129.44412517 eV
  | Electrostatic energy          :      -82773.46465850 Ha    -2252380.57321968 eV
  | Energy correction for multipole
  | error in Hartree potential    :          -0.00166436 Ha          -0.04528942 eV
  | Sum of eigenvalues per atom                           :     -336845.62339277 eV
  | Total energy (T->0) per atom                          :     -535330.31496034 eV  <-- do not rely on this value for anything but (periodic) metals
  | Electronic free energy per atom                       :     -535330.31496034 eV

  Self-consistency convergence accuracy:
  | Change of charge density      : 0.4212E-01
  | Change of sum of eigenvalues  : 0.5351E+02 eV
  | Change of total energy        : 0.4104E-01 eV

  End self-consistency iteration #     2       :  max(cpu_time)    wall_clock(cpu1)
  | Time for this iteration                    :        0.104 s           0.104 s
  | Charge density update                      :        0.032 s           0.031 s
  | Density mixing                             :        0.004 s           0.001 s
  | Hartree multipole update                   :        0.004 s           0.002 s
  | Hartree multipole summation                :        0.020 s           0.019 s
  | Integration                                :        0.048 s           0.047 s
  | Solution of K.-S. eqns.                    :        0.004 s           0.003 s
  | Total energy evaluation                    :        0.000 s           0.000 s
------------------------------------------------------------

------------------------------------------------------------
          Begin self-consistency iteration #    3

  Date     :  20130814, Time     :  123335.675
------------------------------------------------------------
  Evaluating new KS density.
  Integration grid: deviation in total charge (<rho> - N_e) =   1.136868E-13
  Pulay mixing of updated and previous charge densities.

  Evaluating partitioned Hartree potential by multipole expansion.
  | Analytical far-field extrapolation by fixed multipoles:
  | Hartree multipole sum: apparent total charge =  -0.129809E-05
  Summing up the Hartree potential.
  Time summed over all CPUs for potential: real work        0.072 s, elapsed        0.073 s
  | RMS charge density error from multipole expansion :   0.122365E-02

  Integrating Hamiltonian matrix: batch-based integration.
  Time summed over all CPUs for integration: real work        0.188 s, elapsed        0.190 s

  Updating Kohn-Sham eigenvalues, eigenvectors, occupation numbers, and Fermi level.
  Solving generalized eigenproblem
  Solving real symmetric generalised eigenvalue problem by standard ScaLAPACK.
  Using Cholesky factor for transformation
  Using 1-stage real ELPA solver
  Determining occupation numbers for Kohn-Sham eigenstates.
  | Chemical potential (Fermi level) in eV                 : -.55217759E+01
  | Error in electron count due to remaining E_F inaccuracy: 0.00000000E+00
  | Maximum occupation number of highest empty state:  0.00E+00

  Highest occupied state (VBM) at     -6.49702171 eV
  | Occupation number:      2.00000000

  Lowest unoccupied state (CBM) at    -4.55882371 eV
  | Occupation number:      0.00000000

  Overall HOMO-LUMO gap:      1.93819800 eV.

  Total energy components:
  | Sum of eigenvalues            :      -24757.17309994 Ha     -673676.95635565 eV
  | XC energy correction          :        -713.29452500 Ha      -19409.73158165 eV
  | XC potential correction       :         946.99040313 Ha       25768.91997748 eV
  | Free-atom electrostatic energy:      -14823.76841257 Ha     -403375.26201334 eV
  | Hartree energy correction     :           1.19075690 Ha          32.40214382 eV
  | Entropy correction            :           0.00000000 Ha           0.00000000 eV
  | ---------------------------
  | Total energy                  :      -39346.05487748 Ha    -1070660.62782934 eV
  | Total energy, T -> 0          :      -39346.05487748 Ha    -1070660.62782934 eV  <-- do not rely on this value for anything but (periodic) metals
  | Electronic free energy        :      -39346.05487748 Ha    -1070660.62782934 eV

  Derived energy quantities:
  | Kinetic energy                :       44140.88881924 Ha     1201134.69783203 eV
  | Electrostatic energy          :      -82773.64917172 Ha    -2252385.59407972 eV
  | Energy correction for multipole
  | error in Hartree potential    :          -0.00186557 Ha          -0.05076480 eV
  | Sum of eigenvalues per atom                           :     -336838.47817783 eV
  | Total energy (T->0) per atom                          :     -535330.31391467 eV  <-- do not rely on this value for anything but (periodic) metals
  | Electronic free energy per atom                       :     -535330.31391467 eV

  Self-consistency convergence accuracy:
  | Change of charge density      : 0.1483E-01
  | Change of sum of eigenvalues  : 0.1429E+02 eV
  | Change of total energy        : 0.2091E-02 eV

  End self-consistency iteration #     3       :  max(cpu_time)    wall_clock(cpu1)
  | Time for this iteration                    :        0.104 s           0.104 s
  | Charge density update                      :        0.032 s           0.031 s
  | Density mixing                             :        0.004 s           0.001 s
  | Hartree multipole update                   :        0.004 s           0.002 s
  | Hartree multipole summation                :        0.020 s           0.019 s
  | Integration                                :        0.048 s           0.048 s
  | Solution of K.-S. eqns.                    :        0.004 s           0.002 s
  | Total energy evaluation                    :        0.000 s           0.000 s
------------------------------------------------------------

------------------------------------------------------------
          Begin self-consistency iteration #    4

  Date     :  20130814, Time     :  123335.780
------------------------------------------------------------
  Evaluating new KS density.
  Integration grid: deviation in total charge (<rho> - N_e) =   8.526513E-14
  Pulay mixing of updated and previous charge densities.

  Evaluating partitioned Hartree potential by multipole expansion.
  | Analytical far-field extrapolation by fixed multipoles:
  | Hartree multipole sum: apparent total charge =  -0.135869E-05
  Summing up the Hartree potential.
  Time summed over all CPUs for potential: real work        0.072 s, elapsed        0.073 s
  | RMS charge density error from multipole expansion :   0.125523E-02

  Integrating Hamiltonian matrix: batch-based integration.
  Time summed over all CPUs for integration: real work        0.186 s, elapsed        0.188 s

  Updating Kohn-Sham eigenvalues, eigenvectors, occupation numbers, and Fermi level.
  Solving generalized eigenproblem
  Solving real symmetric generalised eigenvalue problem by standard ScaLAPACK.
  Using Cholesky factor for transformation
  Using 1-stage real ELPA solver
  Determining occupation numbers for Kohn-Sham eigenstates.
  | Chemical potential (Fermi level) in eV                 : -.55270264E+01
  | Error in electron count due to remaining E_F inaccuracy: 0.00000000E+00
  | Maximum occupation number of highest empty state:  0.00E+00

  Highest occupied state (VBM) at     -6.51287846 eV
  | Occupation number:      2.00000000

  Lowest unoccupied state (CBM) at    -4.55877054 eV
  | Occupation number:      0.00000000

  Overall HOMO-LUMO gap:      1.95410792 eV.

  Total energy components:
  | Sum of eigenvalues            :      -24757.37670837 Ha     -673682.49682276 eV
  | XC energy correction          :        -713.29052281 Ha      -19409.62267644 eV
  | XC potential correction       :         946.98510295 Ha       25768.77575225 eV
  | Free-atom electrostatic energy:      -14823.76841257 Ha     -403375.26201334 eV
  | Hartree energy correction     :           1.39566862 Ha          37.97807549 eV
  | Entropy correction            :           0.00000000 Ha           0.00000000 eV
  | ---------------------------
  | Total energy                  :      -39346.05487217 Ha    -1070660.62768481 eV
  | Total energy, T -> 0          :      -39346.05487217 Ha    -1070660.62768481 eV  <-- do not rely on this value for anything but (periodic) metals
  | Electronic free energy        :      -39346.05487217 Ha    -1070660.62768481 eV

  Derived energy quantities:
  | Kinetic energy                :       44140.83793637 Ha     1201133.31323863 eV
  | Electrostatic energy          :      -82773.60228573 Ha    -2252384.31824700 eV
  | Energy correction for multipole
  | error in Hartree potential    :          -0.00188684 Ha          -0.05134342 eV
  | Sum of eigenvalues per atom                           :     -336841.24841138 eV
  | Total energy (T->0) per atom                          :     -535330.31384240 eV  <-- do not rely on this value for anything but (periodic) metals
  | Electronic free energy per atom                       :     -535330.31384240 eV

  Self-consistency convergence accuracy:
  | Change of charge density      : 0.3503E-02
  | Change of sum of eigenvalues  : -.5540E+01 eV
  | Change of total energy        : 0.1445E-03 eV

  End self-consistency iteration #     4       :  max(cpu_time)    wall_clock(cpu1)
  | Time for this iteration                    :        0.104 s           0.104 s
  | Charge density update                      :        0.032 s           0.032 s
  | Density mixing                             :        0.004 s           0.001 s
  | Hartree multipole update                   :        0.004 s           0.002 s
  | Hartree multipole summation                :        0.020 s           0.019 s
  | Integration                                :        0.048 s           0.047 s
  | Solution of K.-S. eqns.                    :        0.004 s           0.003 s
  | Total energy evaluation                    :        0.000 s           0.000 s
------------------------------------------------------------

------------------------------------------------------------
          Begin self-consistency iteration #    5

  Date     :  20130814, Time     :  123335.885
------------------------------------------------------------
  Evaluating new KS density.
  Integration grid: deviation in total charge (<rho> - N_e) =   3.410605E-13
  Pulay mixing of updated and previous charge densities.

  Evaluating partitioned Hartree potential by multipole expansion.
  | Analytical far-field extrapolation by fixed multipoles:
  | Hartree multipole sum: apparent total charge =  -0.137616E-05
  Summing up the Hartree potential.
  Time summed over all CPUs for potential: real work        0.072 s, elapsed        0.073 s
  | RMS charge density error from multipole expansion :   0.126255E-02

  Integrating Hamiltonian matrix: batch-based integration.
  Time summed over all CPUs for integration: real work        0.186 s, elapsed        0.188 s

  Updating Kohn-Sham eigenvalues, eigenvectors, occupation numbers, and Fermi level.
  Solving generalized eigenproblem
  Solving real symmetric generalised eigenvalue problem by standard ScaLAPACK.
  Using Cholesky factor for transformation
  Using 1-stage real ELPA solver
  Determining occupation numbers for Kohn-Sham eigenstates.
  | Chemical potential (Fermi level) in eV                 : -.55224793E+01
  | Error in electron count due to remaining E_F inaccuracy: 0.00000000E+00
  | Maximum occupation number of highest empty state:  0.00E+00

  Highest occupied state (VBM) at     -6.50317969 eV
  | Occupation number:      2.00000000

  Lowest unoccupied state (CBM) at    -4.55473394 eV
  | Occupation number:      0.00000000

  Overall HOMO-LUMO gap:      1.94844574 eV.

  Total energy components:
  | Sum of eigenvalues            :      -24757.29376732 Ha     -673680.23988190 eV
  | XC energy correction          :        -713.29189807 Ha      -19409.66009900 eV
  | XC potential correction       :         946.98692075 Ha       25768.82521710 eV
  | Free-atom electrostatic energy:      -14823.76841257 Ha     -403375.26201334 eV
  | Hartree energy correction     :           1.31228672 Ha          35.70913841 eV
  | Entropy correction            :           0.00000000 Ha           0.00000000 eV
  | ---------------------------
  | Total energy                  :      -39346.05487048 Ha    -1070660.62763873 eV
  | Total energy, T -> 0          :      -39346.05487048 Ha    -1070660.62763873 eV  <-- do not rely on this value for anything but (periodic) metals
  | Electronic free energy        :      -39346.05487048 Ha    -1070660.62763873 eV

  Derived energy quantities:
  | Kinetic energy                :       44140.85706721 Ha     1201133.83381537 eV
  | Electrostatic energy          :      -82773.62003962 Ha    -2252384.80135510 eV
  | Energy correction for multipole
  | error in Hartree potential    :          -0.00189056 Ha          -0.05144482 eV
  | Sum of eigenvalues per atom                           :     -336840.11994095 eV
  | Total energy (T->0) per atom                          :     -535330.31381937 eV  <-- do not rely on this value for anything but (periodic) metals
  | Electronic free energy per atom                       :     -535330.31381937 eV

  Self-consistency convergence accuracy:
  | Change of charge density      : 0.1165E-02
  | Change of sum of eigenvalues  : 0.2257E+01 eV
  | Change of total energy        : 0.4607E-04 eV

  End self-consistency iteration #     5       :  max(cpu_time)    wall_clock(cpu1)
  | Time for this iteration                    :        0.108 s           0.104 s
  | Charge density update                      :        0.032 s           0.032 s
  | Density mixing                             :        0.004 s           0.001 s
  | Hartree multipole update                   :        0.004 s           0.002 s
  | Hartree multipole summation                :        0.020 s           0.019 s
  | Integration                                :        0.048 s           0.047 s
  | Solution of K.-S. eqns.                    :        0.004 s           0.003 s
  | Total energy evaluation                    :        0.000 s           0.000 s
------------------------------------------------------------

------------------------------------------------------------
          Begin self-consistency iteration #    6

  Date     :  20130814, Time     :  123335.989
------------------------------------------------------------
  Evaluating new KS density.
  Integration grid: deviation in total charge (<rho> - N_e) =  -2.273737E-13
  Pulay mixing of updated and previous charge densities.

  Evaluating partitioned Hartree potential by multipole expansion.
  | Analytical far-field extrapolation by fixed multipoles:
  | Hartree multipole sum: apparent total charge =  -0.137985E-05
  Summing up the Hartree potential.
  Time summed over all CPUs for potential: real work        0.072 s, elapsed        0.073 s
  | RMS charge density error from multipole expansion :   0.126441E-02

  Integrating Hamiltonian matrix: batch-based integration.
  Time summed over all CPUs for integration: real work        0.186 s, elapsed        0.188 s

  Updating Kohn-Sham eigenvalues, eigenvectors, occupation numbers, and Fermi level.
  Solving generalized eigenproblem
  Solving real symmetric generalised eigenvalue problem by standard ScaLAPACK.
  Using Cholesky factor for transformation
  Using 1-stage real ELPA solver
  Determining occupation numbers for Kohn-Sham eigenstates.
  | Chemical potential (Fermi level) in eV                 : -.55219155E+01
  | Error in electron count due to remaining E_F inaccuracy: 0.00000000E+00
  | Maximum occupation number of highest empty state:  0.00E+00

  Highest occupied state (VBM) at     -6.50234460 eV
  | Occupation number:      2.00000000

  Lowest unoccupied state (CBM) at    -4.55436644 eV
  | Occupation number:      0.00000000

  Overall HOMO-LUMO gap:      1.94797816 eV.

  Total energy components:
  | Sum of eigenvalues            :      -24757.28362276 Ha     -673679.96383436 eV
  | XC energy correction          :        -713.29211135 Ha      -19409.66590266 eV
  | XC potential correction       :         946.98720306 Ha       25768.83289913 eV
  | Free-atom electrostatic energy:      -14823.76841257 Ha     -403375.26201334 eV
  | Hartree energy correction     :           1.30207319 Ha          35.43121419 eV
  | Entropy correction            :           0.00000000 Ha           0.00000000 eV
  | ---------------------------
  | Total energy                  :      -39346.05487042 Ha    -1070660.62763704 eV
  | Total energy, T -> 0          :      -39346.05487042 Ha    -1070660.62763704 eV  <-- do not rely on this value for anything but (periodic) metals
  | Electronic free energy        :      -39346.05487042 Ha    -1070660.62763704 eV

  Derived energy quantities:
  | Kinetic energy                :       44140.86115465 Ha     1201133.94504019 eV
  | Electrostatic energy          :      -82773.62391372 Ha    -2252384.90677456 eV
  | Energy correction for multipole
  | error in Hartree potential    :          -0.00189145 Ha          -0.05146904 eV
  | Sum of eigenvalues per atom                           :     -336839.98191718 eV
  | Total energy (T->0) per atom                          :     -535330.31381852 eV  <-- do not rely on this value for anything but (periodic) metals
  | Electronic free energy per atom                       :     -535330.31381852 eV

  Self-consistency convergence accuracy:
  | Change of charge density      : 0.1292E-03
  | Change of sum of eigenvalues  : 0.2760E+00 eV
  | Change of total energy        : 0.1695E-05 eV

  End self-consistency iteration #     6       :  max(cpu_time)    wall_clock(cpu1)
  | Time for this iteration                    :        0.104 s           0.105 s
  | Charge density update                      :        0.032 s           0.032 s
  | Density mixing                             :        0.004 s           0.002 s
  | Hartree multipole update                   :        0.004 s           0.002 s
  | Hartree multipole summation                :        0.020 s           0.019 s
  | Integration                                :        0.048 s           0.047 s
  | Solution of K.-S. eqns.                    :        0.004 s           0.003 s
  | Total energy evaluation                    :        0.000 s           0.000 s
------------------------------------------------------------

------------------------------------------------------------
          Begin self-consistency iteration #    7

  Date     :  20130814, Time     :  123336.094
------------------------------------------------------------
  Evaluating new KS density.
  Integration grid: deviation in total charge (<rho> - N_e) =  -2.557954E-13
  Pulay mixing of updated and previous charge densities.

  Evaluating partitioned Hartree potential by multipole expansion.
  | Analytical far-field extrapolation by fixed multipoles:
  | Hartree multipole sum: apparent total charge =  -0.138025E-05
  Summing up the Hartree potential.
  Time summed over all CPUs for potential: real work        0.072 s, elapsed        0.073 s
  | RMS charge density error from multipole expansion :   0.126431E-02

  Integrating Hamiltonian matrix: batch-based integration.
  Time summed over all CPUs for integration: real work        0.186 s, elapsed        0.188 s

  Updating Kohn-Sham eigenvalues, eigenvectors, occupation numbers, and Fermi level.
  Solving generalized eigenproblem
  Solving real symmetric generalised eigenvalue problem by standard ScaLAPACK.
  Using Cholesky factor for transformation
  Using 1-stage real ELPA solver
  Determining occupation numbers for Kohn-Sham eigenstates.
  | Chemical potential (Fermi level) in eV                 : -.55220195E+01
  | Error in electron count due to remaining E_F inaccuracy: 0.00000000E+00
  | Maximum occupation number of highest empty state:  0.00E+00

  Highest occupied state (VBM) at     -6.50253262 eV
  | Occupation number:      2.00000000

  Lowest unoccupied state (CBM) at    -4.55446040 eV
  | Occupation number:      0.00000000

  Overall HOMO-LUMO gap:      1.94807222 eV.

  Total energy components:
  | Sum of eigenvalues            :      -24757.28497346 Ha     -673680.00058882 eV
  | XC energy correction          :        -713.29208996 Ha      -19409.66532077 eV
  | XC potential correction       :         946.98717492 Ha       25768.83213335 eV
  | Free-atom electrostatic energy:      -14823.76841257 Ha     -403375.26201334 eV
  | Hartree energy correction     :           1.30343065 Ha          35.46815253 eV
  | Entropy correction            :           0.00000000 Ha           0.00000000 eV
  | ---------------------------
  | Total energy                  :      -39346.05487042 Ha    -1070660.62763705 eV
  | Total energy, T -> 0          :      -39346.05487042 Ha    -1070660.62763705 eV  <-- do not rely on this value for anything but (periodic) metals
  | Electronic free energy        :      -39346.05487042 Ha    -1070660.62763705 eV

  Derived energy quantities:
  | Kinetic energy                :       44140.86097128 Ha     1201133.94005055 eV
  | Electrostatic energy          :      -82773.62375174 Ha    -2252384.90236682 eV
  | Energy correction for multipole
  | error in Hartree potential    :          -0.00189118 Ha          -0.05146160 eV
  | Sum of eigenvalues per atom                           :     -336840.00029441 eV
  | Total energy (T->0) per atom                          :     -535330.31381852 eV  <-- do not rely on this value for anything but (periodic) metals
  | Electronic free energy per atom                       :     -535330.31381852 eV

  Self-consistency convergence accuracy:
  | Change of charge density      : 0.3237E-04
  | Change of sum of eigenvalues  : -.3675E-01 eV
  | Change of total energy        : -.6732E-08 eV

  End self-consistency iteration #     7       :  max(cpu_time)    wall_clock(cpu1)
  | Time for this iteration                    :        0.108 s           0.106 s
  | Charge density update                      :        0.032 s           0.032 s
  | Density mixing                             :        0.004 s           0.002 s
  | Hartree multipole update                   :        0.004 s           0.003 s
  | Hartree multipole summation                :        0.020 s           0.018 s
  | Integration                                :        0.048 s           0.048 s
  | Solution of K.-S. eqns.                    :        0.004 s           0.002 s
  | Total energy evaluation                    :        0.000 s           0.001 s
------------------------------------------------------------

------------------------------------------------------------
          Begin self-consistency iteration #    8

  Date     :  20130814, Time     :  123336.200
------------------------------------------------------------
  Evaluating new KS density.
  Integration grid: deviation in total charge (<rho> - N_e) =   3.410605E-13
  Pulay mixing of updated and previous charge densities.

  Evaluating partitioned Hartree potential by multipole expansion.
  | Analytical far-field extrapolation by fixed multipoles:
  | Hartree multipole sum: apparent total charge =  -0.138035E-05
  Summing up the Hartree potential.
  Time summed over all CPUs for potential: real work        0.072 s, elapsed        0.073 s
  | RMS charge density error from multipole expansion :   0.126433E-02

  Integrating Hamiltonian matrix: batch-based integration.
  Time summed over all CPUs for integration: real work        0.186 s, elapsed        0.188 s

  Updating Kohn-Sham eigenvalues, eigenvectors, occupation numbers, and Fermi level.
  Solving generalized eigenproblem
  Solving real symmetric generalised eigenvalue problem by standard ScaLAPACK.
  Using Cholesky factor for transformation
  Using 1-stage real ELPA solver
  Determining occupation numbers for Kohn-Sham eigenstates.
  | Chemical potential (Fermi level) in eV                 : -.55220188E+01
  | Error in electron count due to remaining E_F inaccuracy: 0.00000000E+00
  | Maximum occupation number of highest empty state:  0.00E+00

  Highest occupied state (VBM) at     -6.50253306 eV
  | Occupation number:      2.00000000

  Lowest unoccupied state (CBM) at    -4.55445842 eV
  | Occupation number:      0.00000000

  Overall HOMO-LUMO gap:      1.94807465 eV.

  Total energy components:
  | Sum of eigenvalues            :      -24757.28500380 Ha     -673680.00141459 eV
  | XC energy correction          :        -713.29208901 Ha      -19409.66529478 eV
  | XC potential correction       :         946.98717365 Ha       25768.83209884 eV
  | Free-atom electrostatic energy:      -14823.76841257 Ha     -403375.26201334 eV
  | Hartree energy correction     :           1.30346131 Ha          35.46898683 eV
  | Entropy correction            :           0.00000000 Ha           0.00000000 eV
  | ---------------------------
  | Total energy                  :      -39346.05487042 Ha    -1070660.62763704 eV
  | Total energy, T -> 0          :      -39346.05487042 Ha    -1070660.62763704 eV  <-- do not rely on this value for anything but (periodic) metals
  | Electronic free energy        :      -39346.05487042 Ha    -1070660.62763704 eV

  Derived energy quantities:
  | Kinetic energy                :       44140.86094879 Ha     1201133.93943863 eV
  | Electrostatic energy          :      -82773.62373020 Ha    -2252384.90178089 eV
  | Energy correction for multipole
  | error in Hartree potential    :          -0.00189114 Ha          -0.05146060 eV
  | Sum of eigenvalues per atom                           :     -336840.00070729 eV
  | Total energy (T->0) per atom                          :     -535330.31381852 eV  <-- do not rely on this value for anything but (periodic) metals
  | Electronic free energy per atom                       :     -535330.31381852 eV

  Self-consistency convergence accuracy:
  | Change of charge density      : 0.2211E-05
  | Change of sum of eigenvalues  : -.8258E-03 eV
  | Change of total energy        : 0.5742E-08 eV

  Electronic self-consistency reached - switching on the force computation.

  End self-consistency iteration #     8       :  max(cpu_time)    wall_clock(cpu1)
  | Time for this iteration                    :        0.104 s           0.106 s
  | Charge density & force component update    :        0.032 s           0.032 s
  | Density mixing                             :        0.004 s           0.002 s
  | Hartree multipole update                   :        0.004 s           0.002 s
  | Hartree multipole summation                :        0.020 s           0.019 s
  | Integration                                :        0.048 s           0.047 s
  | Solution of K.-S. eqns.                    :        0.004 s           0.003 s
  | Total energy evaluation                    :        0.000 s           0.001 s
------------------------------------------------------------

------------------------------------------------------------
          Begin self-consistency iteration #    9

  Date     :  20130814, Time     :  123336.306
------------------------------------------------------------
  Evaluating new KS density.
  Integration grid: deviation in total charge (<rho> - N_e) =   0.000000E+00
  Pulay mixing of updated and previous charge densities.

  Evaluating partitioned Hartree potential by multipole expansion.
  | Analytical far-field extrapolation by fixed multipoles:
  | Hartree multipole sum: apparent total charge =  -0.138035E-05
  Summing up the Hartree potential.
  Time summed over all CPUs for potential: real work        0.193 s, elapsed        0.194 s
  | RMS charge density error from multipole expansion :   0.126434E-02

  Integrating Hamiltonian matrix: batch-based integration.
  Time summed over all CPUs for integration: real work        0.187 s, elapsed        0.188 s

  Updating Kohn-Sham eigenvalues, eigenvectors, occupation numbers, and Fermi level.
  Solving generalized eigenproblem
  Solving real symmetric generalised eigenvalue problem by standard ScaLAPACK.
  Using Cholesky factor for transformation
  Using 1-stage real ELPA solver
  Determining occupation numbers for Kohn-Sham eigenstates.
  | Chemical potential (Fermi level) in eV                 : -.55220183E+01
  | Error in electron count due to remaining E_F inaccuracy: 0.00000000E+00
  | Maximum occupation number of highest empty state:  0.00E+00

  Highest occupied state (VBM) at     -6.50253305 eV
  | Occupation number:      2.00000000

  Lowest unoccupied state (CBM) at    -4.55445887 eV
  | Occupation number:      0.00000000

  Overall HOMO-LUMO gap:      1.94807417 eV.

  Total energy components:
  | Sum of eigenvalues            :      -24757.28500396 Ha     -673680.00141874 eV
  | XC energy correction          :        -713.29208896 Ha      -19409.66529350 eV
  | XC potential correction       :         946.98717359 Ha       25768.83209713 eV
  | Free-atom electrostatic energy:      -14823.76841257 Ha     -403375.26201334 eV
  | Hartree energy correction     :           1.30346148 Ha          35.46899141 eV
  | Entropy correction            :           0.00000000 Ha           0.00000000 eV
  | ---------------------------
  | Total energy                  :      -39346.05487042 Ha    -1070660.62763704 eV
  | Total energy, T -> 0          :      -39346.05487042 Ha    -1070660.62763704 eV  <-- do not rely on this value for anything but (periodic) metals
  | Electronic free energy        :      -39346.05487042 Ha    -1070660.62763704 eV

  Derived energy quantities:
  | Kinetic energy                :       44140.86094903 Ha     1201133.93944521 eV
  | Electrostatic energy          :      -82773.62373049 Ha    -2252384.90178875 eV
  | Energy correction for multipole
  | error in Hartree potential    :          -0.00189114 Ha          -0.05146063 eV
  | Sum of eigenvalues per atom                           :     -336840.00070937 eV
  | Total energy (T->0) per atom                          :     -535330.31381852 eV  <-- do not rely on this value for anything but (periodic) metals
  | Electronic free energy per atom                       :     -535330.31381852 eV

  atomic forces [eV/Ang]:
  -----------------------
  atom #    1
   Hellmann-Feynman + Multipole  : 0.226945E-09 -.290561E-09 0.714544E+02
   Pulay + GGA                   : 0.000000E+00 0.000000E+00 0.000000E+00
   ----------------------------------------------------------------
   Total forces(   1)            : 0.226945E-09 -.290561E-09 0.714544E+02
  atom #    2
   Hellmann-Feynman + Multipole  : -.836911E-09 0.570652E-09 -.714544E+02
   Pulay + GGA                   : 0.000000E+00 0.000000E+00 0.000000E+00
   ----------------------------------------------------------------
   Total forces(   2)            : -.836911E-09 0.570652E-09 -.714544E+02

  Self-consistency convergence accuracy:
  | Change of charge density      : 0.2213E-06
  | Change of sum of eigenvalues  : -.4154E-05 eV
  | Change of total energy        : 0.9899E-09 eV
  | Change of forces              : 0.7145E+02 eV/A

[...]
  | Total energy, T -> 0          :      -39346.05492424 Ha    -1070660.62910150 eV  <-- do not rely on this value for anything but (periodic) metals
  | Electronic free energy        :      -39346.05492424 Ha    -1070660.62910150 eV

  Derived energy quantities:
  | Kinetic energy                :       44140.88146311 Ha     1201134.49766167 eV
  | Electrostatic energy          :      -82773.64128663 Ha    -2252385.37951569 eV
  | Energy correction for multipole
  | error in Hartree potential    :          -0.00195625 Ha          -0.05323232 eV
  | Sum of eigenvalues per atom                           :     -336840.59399679 eV
  | Total energy (T->0) per atom                          :     -535330.31455075 eV  <-- do not rely on this value for anything but (periodic) metals
  | Electronic free energy per atom                       :     -535330.31455075 eV

  atomic forces [eV/Ang]:
  -----------------------
  atom #    1
   Hellmann-Feynman + Multipole  : 0.236486E-08 0.651090E-09 0.710095E+02
   Pulay + GGA                   : 0.000000E+00 0.000000E+00 0.000000E+00
   ----------------------------------------------------------------
   Total forces(   1)            : 0.236486E-08 0.651090E-09 0.710095E+02
  atom #    2
   Hellmann-Feynman + Multipole  : -.197174E-08 0.581325E-09 -.710095E+02
   Pulay + GGA                   : 0.000000E+00 0.000000E+00 0.000000E+00
   ----------------------------------------------------------------
   Total forces(   2)            : -.197174E-08 0.581325E-09 -.710095E+02

  Self-consistency convergence accuracy:
  | Change of charge density      : 0.4243E-07
  | Change of sum of eigenvalues  : -.3221E-04 eV
  | Change of total energy        : -.7920E-09 eV
  | Change of forces              : 0.7101E+02 eV/A

  End self-consistency iteration #     7       :  max(cpu_time)    wall_clock(cpu1)
  | Time for this iteration                    :        0.136 s           0.135 s
  | Charge density & force component update    :        0.032 s           0.032 s
  | Density mixing                             :        0.004 s           0.001 s
  | Hartree multipole update                   :        0.004 s           0.002 s
  | Hartree multipole summation                :        0.052 s           0.050 s
  | Integration                                :        0.048 s           0.047 s
  | Solution of K.-S. eqns.                    :        0.004 s           0.003 s
  | Total energy evaluation                    :        0.000 s           0.000 s
------------------------------------------------------------

------------------------------------------------------------
          Begin self-consistency iteration #    8

  Date     :  20130814, Time     :  123339.031
------------------------------------------------------------
  Evaluating new KS density and force components.
  Integration grid: deviation in total charge (<rho> - N_e) =  -3.694822E-13
  Pulay mixing of updated and previous charge densities.

  Evaluating partitioned Hartree potential by multipole expansion.
  | Analytical far-field extrapolation by fixed multipoles:
  | Hartree multipole sum: apparent total charge =  -0.136148E-05
  Summing up the Hartree potential.
  Time summed over all CPUs for potential: real work        0.194 s, elapsed        0.196 s
  | RMS charge density error from multipole expansion :   0.128756E-02

  Integrating Hamiltonian matrix: batch-based integration.
  Time summed over all CPUs for integration: real work        0.189 s, elapsed        0.201 s

  Updating Kohn-Sham eigenvalues, eigenvectors, occupation numbers, and Fermi level.
  Solving generalized eigenproblem
  Solving real symmetric generalised eigenvalue problem by standard ScaLAPACK.
  Using Cholesky factor for transformation
  Using 1-stage real ELPA solver
  Determining occupation numbers for Kohn-Sham eigenstates.
  | Chemical potential (Fermi level) in eV                 : -.55037891E+01
  | Error in electron count due to remaining E_F inaccuracy: 0.00000000E+00
  | Maximum occupation number of highest empty state:  0.00E+00

  Highest occupied state (VBM) at     -6.48775297 eV
  | Occupation number:      2.00000000

  Lowest unoccupied state (CBM) at    -4.53737532 eV
  | Occupation number:      0.00000000

  Overall HOMO-LUMO gap:      1.95037765 eV.

  Total energy components:
  | Sum of eigenvalues            :      -24757.32860975 Ha     -673681.18799281 eV
  | XC energy correction          :        -713.29510071 Ha      -19409.74724751 eV
  | XC potential correction       :         946.99113426 Ha       25768.93987245 eV
  | Free-atom electrostatic energy:      -14823.73966230 Ha     -403374.47967872 eV
  | Hartree energy correction     :           1.31731427 Ha          35.84594508 eV
  | Entropy correction            :           0.00000000 Ha           0.00000000 eV
  | ---------------------------
  | Total energy                  :      -39346.05492424 Ha    -1070660.62910150 eV
  | Total energy, T -> 0          :      -39346.05492424 Ha    -1070660.62910150 eV  <-- do not rely on this value for anything but (periodic) metals
  | Electronic free energy        :      -39346.05492424 Ha    -1070660.62910150 eV

  Derived energy quantities:
  | Kinetic energy                :       44140.88146314 Ha     1201134.49766234 eV
  | Electrostatic energy          :      -82773.64128666 Ha    -2252385.37951633 eV
  | Energy correction for multipole
  | error in Hartree potential    :          -0.00195625 Ha          -0.05323232 eV
  | Sum of eigenvalues per atom                           :     -336840.59399640 eV
  | Total energy (T->0) per atom                          :     -535330.31455075 eV  <-- do not rely on this value for anything but (periodic) metals
  | Electronic free energy per atom                       :     -535330.31455075 eV

  atomic forces [eV/Ang]:
  -----------------------
  atom #    1
   Hellmann-Feynman + Multipole  : 0.122769E-08 -.807882E-09 0.710095E+02
   Pulay + GGA                   : 0.448974E-07 -.897947E-08 -.710093E+02
   ----------------------------------------------------------------
   Total forces(   1)            : 0.461251E-07 -.978736E-08 0.227613E-03
  atom #    2
   Hellmann-Feynman + Multipole  : -.107672E-08 -.132020E-10 -.710095E+02
   Pulay + GGA                   : 0.179589E-07 -.239453E-07 0.710093E+02
   ----------------------------------------------------------------
   Total forces(   2)            : 0.168822E-07 -.239585E-07 -.229597E-03

  Self-consistency convergence accuracy:
  | Change of charge density      : 0.2081E-08
  | Change of sum of eigenvalues  : 0.7678E-06 eV
  | Change of total energy        : 0.1980E-09 eV
  | Change of forces              : 0.1079E-05 eV/A

  Writing Kohn-Sham eigenvalues.

  State    Occupation    Eigenvalue [Ha]    Eigenvalue [eV]
      1       2.00000       -3253.517935       -88532.72751
      2       2.00000       -3253.517935       -88532.72751
      3       2.00000        -533.287472       -14511.49045
      4       2.00000        -533.287472       -14511.49045
      5       2.00000        -460.287485       -12525.05973
      6       2.00000        -460.287485       -12525.05973
      7       2.00000        -460.287485       -12525.05973
      8       2.00000        -460.287485       -12525.05973
      9       2.00000        -460.287478       -12525.05954
     10       2.00000        -460.287478       -12525.05954
     11       2.00000        -124.147596        -3378.22796
     12       2.00000        -124.147596        -3378.22796
     13       2.00000        -103.442729        -2814.81988
     14       2.00000        -103.442729        -2814.81988
     15       2.00000        -103.442729        -2814.81988
     16       2.00000        -103.442729        -2814.81988
     17       2.00000        -103.441282        -2814.78051
     18       2.00000        -103.441282        -2814.78051
     19       2.00000         -81.392930        -2214.81432
     20       2.00000         -81.392930        -2214.81432
     21       2.00000         -81.392930        -2214.81432
     22       2.00000         -81.392930        -2214.81432
     23       2.00000         -81.391880        -2214.78574
     24       2.00000         -81.391880        -2214.78574
     25       2.00000         -81.391880        -2214.78574
     26       2.00000         -81.391880        -2214.78574
     27       2.00000         -81.391751        -2214.78224
     28       2.00000         -81.391751        -2214.78224
     29       2.00000         -26.813768         -729.63974
     30       2.00000         -26.813768         -729.63974
     31       2.00000         -20.067992         -546.07784
     32       2.00000         -20.067992         -546.07784
     33       2.00000         -20.067992         -546.07784
     34       2.00000         -20.067992         -546.07784
     35       2.00000         -20.067703         -546.06997
     36       2.00000         -20.067703         -546.06997
     37       2.00000         -11.990650         -326.28220
     38       2.00000         -11.990650         -326.28220
     39       2.00000         -11.990248         -326.27125
     40       2.00000         -11.990248         -326.27125
     41       2.00000         -11.990248         -326.27125
     42       2.00000         -11.990248         -326.27125
     43       2.00000         -11.990031         -326.26534
     44       2.00000         -11.990031         -326.26534
     45       2.00000         -11.990031         -326.26534
     46       2.00000         -11.990031         -326.26534
     47       2.00000          -4.004028         -108.95515
     48       2.00000          -4.003224         -108.93325
     49       2.00000          -3.019284          -82.15890
     50       2.00000          -3.019154          -82.15537
     51       2.00000          -3.018921          -82.14902
     52       2.00000          -3.018921          -82.14902
     53       2.00000          -3.018866          -82.14752
     54       2.00000          -3.018866          -82.14752
     55       2.00000          -3.018259          -82.13101
     56       2.00000          -3.018259          -82.13101
     57       2.00000          -3.018249          -82.13074
     58       2.00000          -3.018249          -82.13074
     59       2.00000          -3.018199          -82.12939
     60       2.00000          -3.018199          -82.12939
     61       2.00000          -3.018199          -82.12937
     62       2.00000          -3.018199          -82.12937
     63       2.00000          -2.228631          -60.64412
     64       2.00000          -2.215820          -60.29553
     65       2.00000          -2.209545          -60.12478
     66       2.00000          -2.209545          -60.12478
     67       2.00000          -2.208282          -60.09041
     68       2.00000          -2.208282          -60.09041
     69       2.00000          -0.353664           -9.62368
     70       2.00000          -0.306174           -8.33141
     71       2.00000          -0.306174           -8.33141
     72       2.00000          -0.266191           -7.24343
     73       2.00000          -0.266191           -7.24343
     74       2.00000          -0.252064           -6.85902
     75       2.00000          -0.252064           -6.85902
     76       2.00000          -0.250573           -6.81843
     77       2.00000          -0.240580           -6.54651
     78       2.00000          -0.240580           -6.54651
     79       2.00000          -0.238421           -6.48775
     80       0.00000          -0.166745           -4.53738
     81       0.00000          -0.014960           -0.40708
     82       0.00000          -0.014960           -0.40708
     83       0.00000          -0.013915           -0.37863
     84       0.00000           0.064800            1.76330
     85       0.00000           0.064800            1.76330
     86       0.00000           0.157695            4.29110
     87       0.00000           0.172459            4.69286
     88       0.00000           0.179621            4.88775
     89       0.00000           0.179621            4.88775
     90       0.00000           0.243360            6.62217
     91       0.00000           0.243360            6.62217
     92       0.00000           0.268628            7.30974
     93       0.00000           0.269318            7.32851
     94       0.00000           0.269318            7.32852
     95       0.00000           0.361534            9.83784
     96       0.00000           0.364321            9.91369
     97       0.00000           0.364321            9.91369

  Highest occupied state (VBM) at     -6.48775297 eV
  | Occupation number:      2.00000000

  Lowest unoccupied state (CBM) at    -4.53737532 eV
  | Occupation number:      0.00000000

  Overall HOMO-LUMO gap:      1.95037765 eV.

  Self-consistency cycle converged.

  End self-consistency iteration #     8       :  max(cpu_time)    wall_clock(cpu1)
  | Time for this iteration                    :        0.328 s           0.328 s
  | Charge density & force component update    :        0.220 s           0.220 s
  | Density mixing                             :        0.000 s           0.002 s
  | Hartree multipole update                   :        0.004 s           0.003 s
  | Hartree multipole summation                :        0.048 s           0.049 s
  | Integration                                :        0.052 s           0.051 s
  | Solution of K.-S. eqns.                    :        0.000 s           0.002 s
  | Total energy evaluation                    :        0.004 s           0.001 s
------------------------------------------------------------
  Removing unitary transformations (pure translations, rotations) from forces on atoms.
  Atomic forces before filtering:
  | Net force on center of mass :  0.630073E-07 -.337458E-07 -.198351E-05 eV/A
  | Net torque on center of mass:  0.173568E-07 -.358167E-07 0.547396E-81 eV
  Atomic forces after filtering:
  | Net force on center of mass :  0.797538E-23 -.531692E-23 0.000000E+00 eV/A
  | Net torque on center of mass:  0.624743E-39 -.325609E-23 0.497636E-97 eV
 
  Energy and forces in a compact form:
  | Total energy uncorrected      :         -0.107066062910150E+07 eV
  | Total energy corrected        :         -0.107066062910150E+07 eV  <-- do not rely on this value for anything but (periodic) metals
  | Electronic free energy        :         -0.107066062910150E+07 eV
  Total atomic forces (unitary forces cleaned) [eV/Ang]:
  |   1          0.531691682714519E-23         -0.265845841357260E-23          0.228605182567396E-03
  |   2          0.265845841357260E-23         -0.265845841357260E-23         -0.228605182567396E-03
 
  ------------------------------------ 
  Start decomposition of the XC Energy 
  ------------------------------------ 
  Hartree-Fock part   :          0.000000000 Ha              0.000000000 eV
  ------------------------------------ 
  X Energy            :       -696.755482717 Ha         -18959.681342697 eV
  C Energy GGA        :        -16.539617997 Ha           -450.065904808 eV
  Total XC Energy     :       -713.295100714 Ha         -19409.747247506 eV
  LDA X and C from self-consistent density 
  X Energy LDA        :       -696.755482717 Ha         -18959.681342697 eV
  C Energy LDA        :        -16.539617997 Ha           -450.065904808 eV
  ------------------------------------ 
  End decomposition of the XC Energy 
  ------------------------------------ 
  Relaxation / MD: End force evaluation.       :  max(cpu_time)    wall_clock(cpu1)
  | Time for this force evaluation             :        1.164 s           1.168 s

------------------------------------------------------------
  Geometry optimization: Attempting to predict improved coordinates.

  Removing unitary transformations (pure translations, rotations) from forces on atoms.
  Atomic forces before filtering:
  | Net force on center of mass :  0.797538E-23 -.531692E-23 0.000000E+00 eV/A
  | Net torque on center of mass:  0.624743E-39 -.325609E-23 0.497636E-97 eV
  Atomic forces after filtering:
  | Net force on center of mass :  0.177089E-38 -.885445E-39 0.000000E+00 eV/A
  | Net torque on center of mass:  -.361499E-39 -.722997E-39 0.110497-112 eV
  Net remaining forces (excluding translations, rotations) in present geometry:
  Maximum force component is  0.228605E-03 eV/A.
  Present geometry is converged.

------------------------------------------------------------
  Final atomic structure:
                         x [A]             y [A]             z [A]
            atom         0.00000000        0.00000000        0.27519621  Au
            atom         0.00000000        0.00000000        2.72480379  Au
------------------------------------------------------------

------------------------------------------------------------------------------
  Final output of selected total energy values:

  The following output summarizes some interesting total energy values
  at the end of a run (AFTER all relaxation, molecular dynamics, etc.).

  | Total energy of the DFT / Hartree-Fock s.c.f. calculation      :       -1070660.629101503 eV
  | Final zero-broadening corrected energy (caution - metals only) :       -1070660.629101503 eV
  | For reference only, the value of 1 Hartree used in FHI-aims is :             27.211384500 eV

  Before relying on these values, please be sure to understand exactly which
  total energy value is referred to by a given number. Different objects may
  all carry the same name 'total energy'. Definitions:

  Total energy of the DFT / Hartree-Fock s.c.f. calculation:
  | Note that this energy does not include ANY quantities calculated after the
  | s.c.f. cycle, in particular not ANY RPA, MP2, etc. many-body perturbation terms.

  Final zero-broadening corrected energy:
  | For metallic systems only, a broadening of the occupation numbers at the Fermi
  | level can be extrapolated back to zero broadening by an electron-gas inspired
  | formula. For all systems that are not real metals, this value can be
  | meaningless and should be avoided.

------------------------------------------------------------------------------

------------------------------------------------------------
          Leaving FHI-aims.
          Date     :  20130814, Time     :  123339.367

          Computational steps:
          | Number of self-consistency cycles          :           28
          | Number of relaxation steps                 :            2

          Detailed time accounting                     :  max(cpu_time)    wall_clock(cpu1)
          | Total time                                 :        4.340 s           4.385 s
          | Preparation time                           :        0.272 s           0.289 s
          | Grid partitioning                          :        0.072 s           0.061 s
          | Preloading free-atom quantities on grid    :        0.036 s           0.028 s
          | Free-atom superposition energy             :        0.024 s           0.017 s
          | Total time for integrations                :        1.508 s           1.479 s
          | Total time for solution of K.-S. equations :        0.120 s           0.083 s
          | Total time for EV reorthonormalization     :        0.008 s           0.003 s
          | Total time for density & force components  :        1.500 s           1.482 s
          | Total time for mixing                      :        0.088 s           0.036 s
          | Total time for Hartree multipole update    :        0.108 s           0.061 s
          | Total time for Hartree multipole sum       :        0.760 s           0.727 s
          | Total time for total energy evaluation     :        0.004 s           0.005 s
          | Total time for scaled ZORA corrections     :        0.000 s           0.000 s

          Have a nice day.
------------------------------------------------------------
