  MPI-parallelism will be employed.
------------------------------------------------------------
          Invoking FHI-aims ...
          Version 151211
          Git rev. (modified): d01ffe6 [mbddev] implement print out of MBD bands
          Compiled on 2015/12/11 at 14:59:51 on host theobook27.

          When using FHI-aims, please cite the following reference:

          Volker Blum, Ralf Gehrke, Felix Hanke, Paula Havu,
          Ville Havu, Xinguo Ren, Karsten Reuter, and Matthias Scheffler,
          'Ab Initio Molecular Simulations with Numeric Atom-Centered Orbitals: FHI-aims',
          Computer Physics Communications 180, 2175-2196 (2009)

          For any questions about FHI-aims, please visit the aimsclub website
          with its forums and wiki. Contributions to both the forums and the
          wiki are warmly encouraged - they are for you, and everyone is welcome there.

------------------------------------------------------------

  Date     :  20160131, Time     :  144325.372
  Time zero on CPU 1             :   0.300000000000000E-01  s.
  Internal wall clock time zero  :           223483405.372  s.

  Using        2 parallel tasks.
  Task        0 on host theobook27 reporting.
  Task        1 on host theobook27 reporting.

  Performing system and environment tests:
  | Environment variable OMP_NUM_THREADS correctly set to 1.
  | Stacksize not measured: no C compiler
  | Checking for scalapack...
  | Testing pdtran()...
  | All pdtran() tests passed.

  Obtaining array dimensions for all initial allocations:
  
  -----------------------------------------------------------------------
  Parsing control.in (first pass over file, find array dimensions only).
  The contents of control.in will be repeated verbatim below
  unless switched off by setting 'verbatim_writeout .false.' .
  in the first line of control.in .
  -----------------------------------------------------------------------
  
    xc                 pbe
    charge             0.
    spin               none
    relativistic       zora scalar 1e-12
    occupation_type    gaussian 0.01
    sc_accuracy_rho    1E-5
    sc_accuracy_eev    1E-3
    sc_accuracy_etot   1E-6
  ################################################################################
  #
  #  FHI-aims code project
  #  VB, Fritz-Haber Institut, 2009
  #
  #  Suggested "light" defaults for Au atom (to be pasted into control.in file)
  #  Be sure to double-check any results obtained with these settings for post-processing,
  #  e.g., with the "tight" defaults and larger basis sets.
  #
  ################################################################################
    species        Au
  #     global species definitions
      nucleus             79
      mass                196.966569
  #
      l_hartree           4
  #
      cut_pot             3.5  1.5  1.0
      basis_dep_cutoff    1e-4
  #
      radial_base         73 5.0
      radial_multiplier   1
      angular_grids specified
        division   0.5066   50
        division   0.9861  110
        division   1.2821  194
        division   1.5344  302
  #      division   2.0427  434
  #      division   2.1690  590
  #      division   2.2710  770
  #      division   2.3066  974
  #      division   2.7597 1202
  #      outer_grid 974
        outer_grid 302
  ################################################################################
  #
  #  Definition of "minimal" basis
  #
  ################################################################################
  #     valence basis states
      valence      6  s   1.
      valence      5  p   6.
      valence      5  d  10.
      valence      4  f  14.
  #     ion occupancy
      ion_occ     6  s   0.
      ion_occ     5  p   6.
      ion_occ     5  d   9.
      ion_occ     4  f   14.
  ################################################################################
  #
  #  Suggested additional basis functions. For production calculations,
  #  uncomment them one after another (the most important basis functions are
  #  listed first).
  #
  #  Constructed for dimers: 2.10, 2.45, 3.00, 4.00 AA
  #
  ################################################################################
  #  "First tier" - max. impr. -161.60  meV, min. impr. -4.53 meV
       ionic 6 p auto
       hydro 4 f 7.4
       ionic 6 s auto
  #     hydro 5 g 10
  #     hydro 6 h 12.8
       hydro 3 d 2.5
  #  "Second tier" - max. impr. -2.46  meV, min. impr. -0.28 meV
  #     hydro 5 f 14.8
  #     hydro 4 d 3.9
  #     hydro 3 p 3.3
  #     hydro 1 s 0.45
  #     hydro 5 g 16.4
  #     hydro 6 h 13.6
  #  "Third tier" - max. impr. -0.49  meV, min. impr. -0.09 meV
  #     hydro 4 f 5.2
  #     hydro 4 d 5
  #     hydro 5 g 8
  #     hydro 5 p 8.2
  #     hydro 6 d 12.4
  #     hydro 6 s 14.8
  #  Further basis functions: -0.08 meV and below
  #     hydro 5 f 18.8
  #     hydro 5 g 20
  #    hydro 5 g 15.2
  
  -----------------------------------------------------------------------
  Completed first pass over input file control.in .
  -----------------------------------------------------------------------
  
  
  -----------------------------------------------------------------------
  Parsing geometry.in (first pass over file, find array dimensions only).
  The contents of geometry.in will be repeated verbatim below
  unless switched off by setting 'verbatim_writeout .false.' .
  in the first line of geometry.in .
  -----------------------------------------------------------------------
  
  atom 0.0 0.0 0.23702575 Au
  atom 0.0 0.0 2.76297425 Au
  
  -----------------------------------------------------------------------
  Completed first pass over input file geometry.in .
  -----------------------------------------------------------------------
  

  Basic array size parameters:
  | Number of species                 :        1
  | Number of atoms                   :        2
  | Max. basis fn. angular momentum   :        3
  | Max. atomic/ionic basis occupied n:        6
  | Max. number of basis fn. types    :        3
  | Max. radial fns per species/type  :       14
  | Max. logarithmic grid size        :     1488
  | Max. radial integration grid size :       73
  | Max. angular integration grid size:      302
  | Max. angular grid division number :        8
  | Radial grid for Hartree potential :     1488
  | Number of spin channels           :        1

------------------------------------------------------------
          Reading file control.in.
------------------------------------------------------------
  XC: Using PBE gradient-corrected functionals.
  Charge =   0.000000E+00: Neutral system requested explicitly.
  Spin treatment: No spin polarisation.
  Scalar relativistic treatment of kinetic energy: ZORA.
  Threshold value for ZORA:   0.100000E-11
  Occupation type: Gaussian broadening, width =   0.100000E-01 eV.
  Convergence accuracy of self-consistent charge density:  0.1000E-04
  Convergence accuracy of sum of eigenvalues:  0.1000E-02
  Convergence accuracy of total energy:  0.1000E-05
 
  Reading configuration options for species Au                  .
  | Found nuclear charge :  79.0000
  | Found atomic mass :    196.966569000000      amu
  | Found l_max for Hartree potential  :   4
  | Found cutoff potl. onset [A], width [A], scale factor :    3.50000    1.50000    1.00000
  | Threshold for basis-dependent cutoff potential is   0.100000E-03
  | Found data for basic radial integration grid :    73 points, outermost radius =    5.000 A
  | Found multiplier for basic radial grid :   1
  | Found angular grid specification: user-specified.
  | Specified grid contains     5 separate shells.
  | Check grid settings after all constraints further below.
  | Found free-atom valence shell :  6 s   1.000
  | Found free-atom valence shell :  5 p   6.000
  | Found free-atom valence shell :  5 d  10.000
  | Found free-atom valence shell :  4 f  14.000
  | Found free-ion valence shell :  6 s   0.000
  | Found free-ion valence shell :  5 p   6.000
  | Found free-ion valence shell :  5 d   9.000
  | Found free-ion valence shell :  4 f  14.000
  | Found ionic basis function :  6 p , default cutoff radius.
  | Found hydrogenic basis function :  4 f   7.400
  | Found ionic basis function :  6 s , default cutoff radius.
  | Found hydrogenic basis function :  3 d   2.500
  Species Au                  : Missing cutoff potential type.
  Defaulting to exp(1/x)/(1-x)^2 type cutoff potential.
  Species Au: No 'logarithmic' tag. Using default grid for free atom:
  | Default logarithmic grid data [bohr] : 0.1000E-03 0.1000E+03 0.1012E+01
  | Will include ionic basis functions of  2.0-fold positive Au                   ion.
  Species Au: On-site basis accuracy parameter (for Gram-Schmidt orthonormalisation) not specified.
  Using default value basis_acc =  0.1000000E-03.
  Species Au                  : Using default innermost maximum threshold i_radial=  2 for radial functions.
  Species Au                  : Default cutoff onset for free atom density etc. : 0.35000000E+01 AA.
  Species Au                  : Basic radial grid will be enhanced according to radial_multiplier =   1, to contain    73 grid points.
 
  Finished reading input file 'control.in'. Consistency checks are next.
 
  Target number of points in a grid batch is not set. Defaulting to  100
  Method for grid partitioning is not set. Defaulting to parallel hash+maxmin partitioning.
  Batch size limit is not set. Defaulting to    200
  By default, will store active basis functions for each batch.
  If in need of memory, prune_basis_once .false. can be used to disable this option.
  communication_type for Hartree potential was not specified.
  Defaulting to calc_hartree .
  Defaulting to Pulay charge density mixer.
  Pulay mixer: Number of relevant iterations not set.
  Defaulting to    8 iterations.
  Pulay mixer: Number of initial linear mixing iterations not set.
  Defaulting to    0 iterations.
  Work space size for distributed Hartree potential not set.
  Defaulting to   0.200000E+03 MB.
  Mixing parameter for charge density mixing has not been set.
  Using default: charge_mix_param =     0.2000.
  Algorithm-dependent basis array size parameters:
  | n_max_pulay                         :        8
  Maximum number of self-consistency iterations not provided.
  Presetting  1000 iterations.
  Calculation of forces was not defined in control.in. No forces will be calculated.
  Geometry relaxation not requested: no relaxation will be performed.
  No accuracy limit for integral partition fn. given. Defaulting to  0.1000E-14.
  No threshold value for u(r) in integrations given. Defaulting to  0.1000E-05.
  No accuracy for occupation numbers given. Defaulting to  0.1000E-07.
  No threshold value for occupation numbers given. Defaulting to  0.0000E+00.
  No accuracy for fermi level given. Defaulting to  0.1000E-19.
  Maximum # of iterations to find E_F not set. Defaulting to  200.
  Preferred method for the eigenvalue solver ('KS_method') not specified in 'control.in'.
  Calling blacs routine to test compilation state
  Since scalapack support is enabled, defaulting to 'elpa'.
  Will not use alltoall communication since running on < 1024 CPUs.
  Threshold for basis singularities not set.
  Default threshold for basis singularities:  0.1000E-04
  partition_type (choice of integration weights) for integrals was not specified.
  | Using a version of the partition function of Stratmann and coworkers ('stratmann_smoother').
  | At each grid point, the set of atoms used to build the partition table is smoothly restricted to
  | only those atoms whose free-atom density would be non-zero at that grid point.
  Partitioning for Hartree potential was not defined. Using partition_type for integrals.
  | Adjusted default value of keyword multip_moments_threshold to:       0.10000000E-11
  | This value may affect high angular momentum components of the Hartree potential in periodic systems.
  No q(lm)/r^(l+1) cutoff set for long-range Hartree potential.
  | Using default value of  0.100000E-09 .
  | Verify using the multipole_threshold keyword.
  Defaulting to new monopole extrapolation.
  Density update method: automatic selection selected.
------------------------------------------------------------


------------------------------------------------------------
          Reading geometry description geometry.in.
------------------------------------------------------------
  Input structure read successfully.
  The structure contains        2 atoms,  and a total of        158.000 electrons.

  Input geometry:
  | No unit cell requested.
  | Atomic structure:
  |       Atom                x [A]            y [A]            z [A]
  |    1: Species Au             0.000000         0.000000         0.237026
  |    2: Species Au             0.000000         0.000000         2.762974
  |

  | The smallest distance between any two atoms is         2.52594850 AA.
  |
  | The first atom of this pair is atom number                      1 .
  | The second atom of this pair is atom number                     2 .

  Number of empty states per atom not set in control.in - providing a guess from actual geometry.
  | Total number of empty states used during s.c.f. cycle:       18
  If you use a very high smearing, use empty_states (per atom!) in control.in to increase this value.

  Structure-dependent array size parameters: 
  | Maximum number of distinct radial functions  :       18
  | Maximum number of basis functions            :      112
  | Number of Kohn-Sham states (occupied + empty):       97
------------------------------------------------------------

------------------------------------------------------------
          Preparing all fixed parts of the calculation.
------------------------------------------------------------
  Determining machine precision:
    2.225073858507201E-308
  Setting up grids for atomic and cluster calculations.

  Creating wave function, potential, and density for free atoms.

  Species: Au

  List of occupied orbitals and eigenvalues:
    n    l              occ      energy [Ha]    energy [eV]
    1    0           2.0000     -3256.431199    -88612.0015
    2    0           2.0000      -533.654865    -14521.4877
    3    0           2.0000      -124.232088     -3380.5271
    4    0           2.0000       -26.843821      -730.4575
    5    0           2.0000        -3.974251      -108.1449
    6    0           1.0000        -0.207180        -5.6377
    2    1           6.0000      -460.384091    -12527.6885
    3    1           6.0000      -103.448928     -2814.9886
    4    1           6.0000       -20.075789      -546.2900
    5    1           6.0000        -2.189737       -59.5858
    3    2          10.0000       -81.364825     -2214.0495
    4    2          10.0000       -11.975168      -325.8609
    5    2          10.0000        -0.249072        -6.7776
    4    3          14.0000        -2.985533       -81.2405

  Creating fixed part of basis set: Ionic, confined, hydrogenic.
 
  Au                   ion:

  List of free ionic orbitals and eigenvalues:
    n    l      energy [Ha]    energy [eV]
    1    0     -3257.305345    -88635.7882
    2    0      -534.468969    -14543.6406
    3    0      -125.037161     -3402.4343
    4    0       -27.646714      -752.3054
    5    0        -4.773414      -129.8912
    2    1      -461.196653    -12549.7994
    3    1      -104.253556     -2836.8836
    4    1       -20.878488      -568.1326
    5    1        -2.984283       -81.2065
    3    2       -82.168946     -2235.9308
    4    2       -12.777596      -347.6961
    5    2        -1.004504       -27.3340
    4    3        -3.787521      -103.0637


  List of ionic basis orbitals and eigenvalues:
    n    l      energy [Ha]    energy [eV]    outer radius [A]
    6    1        -0.535414       -14.5694       4.560053
    6    0        -0.835538       -22.7361       4.504645

 
  Au                   hydrogenic:
 
  List of hydrogenic basis orbitals: 
    n    l      effective z      eigenvalue [eV]  inner max. [A]     outer max. [A]     outer radius [A]   
    4    3         7.400000       -46.5648           1.145580           1.145580           4.504645
    3    2         2.500000        -9.0892           1.822958           1.822958           4.616141
 

  Adding cutoff potential to free-atom effective potential.
  Creating atomic-like basis functions for current effective potential.

  Species Au                  :

  List of atomic basis orbitals and eigenvalues:
    n    l      energy [Ha]    energy [eV]    outer radius [A]
    1    0     -3256.431199    -88612.0015       0.120816
    2    0      -533.654865    -14521.4877       0.313506
    3    0      -124.232088     -3380.5271       0.652830
    4    0       -26.843821      -730.4575       1.359424
    5    0        -3.974251      -108.1449       3.318406
    6    0        -0.207180        -5.6377       4.560053
    2    1      -460.384091    -12527.6885       0.329217
    3    1      -103.448928     -2814.9886       0.702515
    4    1       -20.075789      -546.2900       1.536198
    5    1        -2.189737       -59.5858       4.035315
    3    2       -81.364825     -2214.0495       0.755981
    4    2       -11.975168      -325.8609       1.868078
    5    2        -0.249072        -6.7776       4.504645
    4    3        -2.985533       -81.2405       3.198908

  Assembling full basis from fixed parts.
  | Species Au :   atomic orbital   1 s accepted.
  | Species Au :   atomic orbital   2 s accepted.
  | Species Au :   atomic orbital   3 s accepted.
  | Species Au :   atomic orbital   4 s accepted.
  | Species Au :   atomic orbital   5 s accepted.
  | Species Au :    ionic orbital   6 s accepted.
  | Species Au :   atomic orbital   6 s accepted.
  | Species Au :   atomic orbital   2 p accepted.
  | Species Au :   atomic orbital   3 p accepted.
  | Species Au :   atomic orbital   4 p accepted.
  | Species Au :   atomic orbital   5 p accepted.
  | Species Au :    ionic orbital   6 p accepted.
  | Species Au :   atomic orbital   3 d accepted.
  | Species Au :   atomic orbital   4 d accepted.
  | Species Au :   atomic orbital   5 d accepted.
  | Species Au :    hydro orbital   3 d accepted.
  | Species Au :   atomic orbital   4 f accepted.
  | Species Au :    hydro orbital   4 f accepted.
 
  Basis size parameters after reduction:
  | Total number of radial functions:       18
  | Total number of basis functions :      112
 
  Testing on-site integration grid accuracy.
  |  Species  Function  <phi|h_atom|phi> (log., in eV)  <phi|h_atom|phi> (rad., in eV)
           1        1             -88612.0014632775             -88611.6712066339 ***
           1        2             -14521.4877182964             -14521.4813973869
           1        3              -3380.5271184873              -3380.5267740925
           1        4               -730.4575387750               -730.4575122327
           1        5               -108.1448599487               -108.1448563495
           1        6                 -5.0942970264                 -5.0944290409
           1        7                  6.1115134725                  6.0788143842 ***
           1        8             -12527.6885190593             -12527.6885174138
           1        9              -2814.9885638658              -2814.9885484282
           1       10               -546.2900141357               -546.2900082394
           1       11                -59.5857773529                -59.5857755679
           1       12                  0.8801786309                  0.8779179116
           1       13              -2214.0495316492              -2214.0495267872
           1       14               -325.8609015357               -325.8608989631
           1       15                 -6.7779523923                 -6.7780549479
           1       16                  6.8774732691                  6.8534371089
           1       17                -81.2404736787                -81.2404731593
           1       18                 21.6950885255                 21.6950713538
 * Note: Onsite integrals marked "***" above are less accurate than
 * onsite_accuracy_threshold =    0.03000 eV. Usually, this is harmless.
 * However, one integral did have a negative value. This integral could be important.
 * When in doubt, tighten the "radial" and/or "radial_multiplier" flags to check.

  Preparing densities etc. for the partition functions (integrals / Hartree potential).

  Preparations completed.
  max(cpu_time)          :      0.510 s.
  Wall clock time (cpu1) :      0.522 s.
------------------------------------------------------------

------------------------------------------------------------
          Begin self-consistency loop: Initialization.

          Date     :  20160131, Time     :  144325.933
------------------------------------------------------------

  Initializing index lists of integration centers etc. from given atomic structure:
  | Number of centers in hartree potential         :         2
  | Number of centers in hartree multipole         :         2
  | Number of centers in electron density summation:         2
  | Number of centers in basis integrals           :         2
  | Number of centers in integrals                 :         2
  | Number of centers in hamiltonian               :         2
  Using modified Scalapack Eigenvalue solver (ELPA)
  * Using 2 tasks for Scalapack Eigenvalue solver.
  Detailed listing of tasks and assigned k-points:
  (for non-periodic systems, the "k-point" denotes an internal label only)
   Task     0 k-point     1 on theobook27
   Task     1 k-point     1 on theobook27
  Tasks:     2 split into      2 X      1 BLACS grid
  Calculating blocksize based on n_basis =          112 max_nprow =            2 max_npcol =            1
  Scalapack blocksize set to:           16
  Required Scalapack workspace - INTEGER:            1 REAL:             1
  Partitioning the integration grid into batches with parallel hashing+maxmin method.
  | Number of batches:      249
  | Maximal batch size:     145
  | Minimal batch size:      68
  | Average batch size:      73.269
  | Standard deviation of batch sizes:      11.477

  Integration load balanced across     2 MPI tasks.
  Work distribution over tasks is as follows:
  Task     0 has       9159 integration points.
  Task     1 has       9085 integration points.
  Initializing partition tables, free-atom densities, potentials, etc. across the integration grid (initialize_grid_storage).
  | initialize_grid_storage: Actual outermost partition radius vs. multipole_radius_free
  | (-- VB: in principle, multipole_radius_free should be larger, hence this output)
  | Species        1: Confinement radius =              4.999999999999999 AA, multipole_radius_free =              5.028561921230412 AA.
  | Species        1: outer_partition_radius set to              5.028561921230412 AA .
  | Original list of interatomic distances with           2 x          2 entries is created.
  | Net number of integration points:    18244
  | of which are non-zero points    :    17948
  Obtaining max. number of non-zero basis functions in each batch (get_n_compute_maxes).
  | Maximal number of non-zero basis functions:       96 in task     0
  | Maximal number of non-zero basis functions:       96 in task     1
  Selecting the method for density update.
  split updates selected: force will be updated via density matrix and electron density via Kohn Sham orbitals.
  Scalapack and split updates requested:
  Switching to packed matrix format "index" by default.
  Hamiltonian matrix size:
  | Size of matrix non-packed:        6328
  | Size of matrix packed:            6075
  Integrating Hamiltonian matrix: batch-based integration.
  Time summed over all CPUs for integration: real work        0.259 s, elapsed        0.261 s
  Integrating overlap matrix.
  Time summed over all CPUs for integration: real work        0.064 s, elapsed        0.066 s
  Decreasing sparse matrix size:
   Tolerance:  9.999999824516700E-014
   Hamiltonian matrix
  | Array has     1408 nonzero elements out of     6075 elements
  | Sparsity factor is 0.768
   Overlap matrix
  | Array has     1290 nonzero elements out of     6075 elements
  | Sparsity factor is 0.788
  New size of hamiltonian matrix:        3815
  Deallocating overlap matrix.

  Updating Kohn-Sham eigenvalues, eigenvectors, occupation numbers, and Fermi level.
  Solving generalized eigenproblem
  Solving real symmetric generalised eigenvalue problem by standard ScaLAPACK.
  Transforming overlap matrix with ScaLAPACK and checking for singularities.
  : Overlap matrix is nonsingular, using Cholesky decomposition
  | Lowest eigenvalue:  0.240052E-01
  Factoring overlap matrix with Cholesky decomposition
  Using Cholesky factor for transformation
  Using 1-stage real ELPA solver
  Determining occupation numbers for Kohn-Sham eigenstates.
  | Chemical potential (Fermi level) in eV                 : -.42990299E+01
  | Error in electron count due to remaining E_F inaccuracy: 0.00000000E+00
  | Maximum occupation number of highest empty state:  0.00E+00

  Writing Kohn-Sham eigenvalues.

  State    Occupation    Eigenvalue [Ha]    Eigenvalue [eV]
      1       2.00000       -3255.867821       -88596.67117
      2       2.00000       -3255.867821       -88596.67117
      3       2.00000        -533.570571       -14519.19396
      4       2.00000        -533.570571       -14519.19396
      5       2.00000        -460.361590       -12527.07624
      6       2.00000        -460.361590       -12527.07624
      7       2.00000        -460.361582       -12527.07603
      8       2.00000        -460.361582       -12527.07603
      9       2.00000        -460.361582       -12527.07603
     10       2.00000        -460.361582       -12527.07603
     11       2.00000        -124.213900        -3380.03220
     12       2.00000        -124.213900        -3380.03220
     13       2.00000        -103.444635        -2814.87174
     14       2.00000        -103.444635        -2814.87174
     15       2.00000        -103.444574        -2814.87008
     16       2.00000        -103.444574        -2814.87008
     17       2.00000        -103.444574        -2814.87008
     18       2.00000        -103.444574        -2814.87008
     19       2.00000         -81.364958        -2214.05316
     20       2.00000         -81.364958        -2214.05316
     21       2.00000         -81.364946        -2214.05282
     22       2.00000         -81.364946        -2214.05282
     23       2.00000         -81.364946        -2214.05282
     24       2.00000         -81.364946        -2214.05282
     25       2.00000         -81.364910        -2214.05185
     26       2.00000         -81.364910        -2214.05185
     27       2.00000         -81.364910        -2214.05185
     28       2.00000         -81.364910        -2214.05185
     29       2.00000         -26.840592         -730.36967
     30       2.00000         -26.840592         -730.36967
     31       2.00000         -20.076448         -546.30794
     32       2.00000         -20.076448         -546.30794
     33       2.00000         -20.076102         -546.29853
     34       2.00000         -20.076102         -546.29853
     35       2.00000         -20.076102         -546.29853
     36       2.00000         -20.076102         -546.29853
     37       2.00000         -11.976994         -325.91059
     38       2.00000         -11.976994         -325.91059
     39       2.00000         -11.976880         -325.90748
     40       2.00000         -11.976880         -325.90748
     41       2.00000         -11.976880         -325.90748
     42       2.00000         -11.976880         -325.90748
     43       2.00000         -11.976605         -325.89999
     44       2.00000         -11.976605         -325.89999
     45       2.00000         -11.976605         -325.89999
     46       2.00000         -11.976605         -325.89999
     47       2.00000          -3.976426         -108.20407
     48       2.00000          -3.975872         -108.18898
     49       2.00000          -2.987827          -81.30292
     50       2.00000          -2.987741          -81.30056
     51       2.00000          -2.987727          -81.30018
     52       2.00000          -2.987727          -81.30018
     53       2.00000          -2.987690          -81.29917
     54       2.00000          -2.987690          -81.29917
     55       2.00000          -2.987518          -81.29450
     56       2.00000          -2.987518          -81.29449
     57       2.00000          -2.987511          -81.29432
     58       2.00000          -2.987511          -81.29431
     59       2.00000          -2.987252          -81.28725
     60       2.00000          -2.987252          -81.28725
     61       2.00000          -2.987251          -81.28724
     62       2.00000          -2.987251          -81.28724
     63       2.00000          -2.199927          -59.86305
     64       2.00000          -2.192447          -59.65952
     65       2.00000          -2.192447          -59.65952
     66       2.00000          -2.191511          -59.63406
     67       2.00000          -2.191511          -59.63406
     68       2.00000          -2.190210          -59.59864
     69       2.00000          -0.327820           -8.92044
     70       2.00000          -0.287620           -7.82654
     71       2.00000          -0.287620           -7.82654
     72       2.00000          -0.258144           -7.02447
     73       2.00000          -0.258144           -7.02446
     74       2.00000          -0.245690           -6.68555
     75       2.00000          -0.245690           -6.68555
     76       2.00000          -0.243566           -6.62776
     77       2.00000          -0.227004           -6.17708
     78       2.00000          -0.227004           -6.17708
     79       2.00000          -0.226898           -6.17422
     80       0.00000          -0.146349           -3.98235
     81       0.00000          -0.009509           -0.25875
     82       0.00000          -0.009509           -0.25875
     83       0.00000           0.003108            0.08456
     84       0.00000           0.079131            2.15327
     85       0.00000           0.079131            2.15327
     86       0.00000           0.195467            5.31892
     87       0.00000           0.209249            5.69395
     88       0.00000           0.217443            5.91693
     89       0.00000           0.217471            5.91769
     90       0.00000           0.277706            7.55677
     91       0.00000           0.277706            7.55677
     92       0.00000           0.294159            8.00448
     93       0.00000           0.302846            8.24085
     94       0.00000           0.302848            8.24093
     95       0.00000           0.389002           10.58529
     96       0.00000           0.409012           11.12979
     97       0.00000           0.409012           11.12979

  Highest occupied state (VBM) at     -6.17422024 eV
  | Occupation number:      2.00000000

  Lowest unoccupied state (CBM) at    -3.98235392 eV
  | Occupation number:      0.00000000

  Overall HOMO-LUMO gap:      2.19186633 eV.
  Calculating total energy contributions from superposition of free atom densities.

  Total energy components:
  | Sum of eigenvalues            :      -24766.93685232 Ha     -673942.64157567 eV
  | XC energy correction          :        -735.85368904 Ha      -20023.59766815 eV
  | XC potential correction       :         962.50648963 Ha       26191.13417302 eV
  | Free-atom electrostatic energy:      -14826.28183704 Ha     -403443.65577300 eV
  | Hartree energy correction     :           0.00000000 Ha           0.00000000 eV
  | Entropy correction            :           0.00000000 Ha           0.00000000 eV
  | ---------------------------
  | Total energy                  :      -39366.56588877 Ha    -1071218.76084380 eV
  | Total energy, T -> 0          :      -39366.56588877 Ha    -1071218.76084380 eV  <-- do not rely on this value for anything but (periodic) metals
  | Electronic free energy        :      -39366.56588877 Ha    -1071218.76084380 eV

  Derived energy quantities:
  | Kinetic energy                :       44183.14973858 Ha     1202284.67595768 eV
  | Electrostatic energy          :      -82813.86193831 Ha    -2253479.83913334 eV
  | Energy correction for multipole
  | error in Hartree potential    :           0.00000000 Ha           0.00000000 eV
  | Sum of eigenvalues per atom                           :     -336971.32078783 eV
  | Total energy (T->0) per atom                          :     -535609.38042190 eV  <-- do not rely on this value for anything but (periodic) metals
  | Electronic free energy per atom                       :     -535609.38042190 eV
  Initialize hartree_potential_storage
  Max. number of atoms included in rho_multipole:            2

  End scf initialization - timings             :  max(cpu_time)    wall_clock(cpu1)
  | Time for scf. initialization               :        0.220 s           0.228 s
  | Boundary condition initialization          :        0.000 s           0.008 s
  | Integration                                :        0.160 s           0.164 s
  | Solution of K.-S. eqns.                    :        0.010 s           0.009 s
  | Grid partitioning                          :        0.020 s           0.019 s
  | Preloading free-atom quantities on grid    :        0.000 s           0.003 s
  | Free-atom superposition energy             :        0.010 s           0.011 s
  | Total energy evaluation                    :        0.000 s           0.000 s
------------------------------------------------------------

------------------------------------------------------------
          Begin self-consistency iteration #    1

  Date     :  20160131, Time     :  144326.161
------------------------------------------------------------
  Evaluating new KS density.
  Integration grid: deviation in total charge (<rho> - N_e) =  -3.126388E-13
  Pulay mixing of updated and previous charge densities.

  Evaluating partitioned Hartree potential by multipole expansion.
  | Analytical far-field extrapolation by fixed multipoles:
  | Hartree multipole sum: apparent total charge =  -0.208885E-04
  Summing up the Hartree potential.
  Time summed over all CPUs for potential: real work        0.028 s, elapsed        0.028 s
  | RMS charge density error from multipole expansion :   0.899961E-03

  Integrating Hamiltonian matrix: batch-based integration.
  Time summed over all CPUs for integration: real work        0.265 s, elapsed        0.267 s

  Updating Kohn-Sham eigenvalues, eigenvectors, occupation numbers, and Fermi level.
  Solving generalized eigenproblem
  Solving real symmetric generalised eigenvalue problem by standard ScaLAPACK.
  Using Cholesky factor for transformation
  Using 1-stage real ELPA solver
  Determining occupation numbers for Kohn-Sham eigenstates.
  | Chemical potential (Fermi level) in eV                 : -.42826160E+01
  | Error in electron count due to remaining E_F inaccuracy: 0.00000000E+00
  | Maximum occupation number of highest empty state:  0.00E+00

  Writing Kohn-Sham eigenvalues.

  State    Occupation    Eigenvalue [Ha]    Eigenvalue [eV]
      1       2.00000       -3255.879959       -88597.00146
      2       2.00000       -3255.879959       -88597.00146
      3       2.00000        -533.581899       -14519.50220
      4       2.00000        -533.581899       -14519.50220
      5       2.00000        -460.372926       -12527.38471
      6       2.00000        -460.372926       -12527.38471
      7       2.00000        -460.372925       -12527.38467
      8       2.00000        -460.372925       -12527.38467
      9       2.00000        -460.372925       -12527.38467
     10       2.00000        -460.372925       -12527.38467
     11       2.00000        -124.224279        -3380.31463
     12       2.00000        -124.224279        -3380.31463
     13       2.00000        -103.455045        -2815.15501
     14       2.00000        -103.455045        -2815.15501
     15       2.00000        -103.455045        -2815.15501
     16       2.00000        -103.455045        -2815.15501
     17       2.00000        -103.454787        -2815.14799
     18       2.00000        -103.454787        -2815.14799
     19       2.00000         -81.375547        -2214.34130
     20       2.00000         -81.375547        -2214.34130
     21       2.00000         -81.375547        -2214.34130
     22       2.00000         -81.375547        -2214.34130
     23       2.00000         -81.375345        -2214.33580
     24       2.00000         -81.375345        -2214.33580
     25       2.00000         -81.375345        -2214.33580
     26       2.00000         -81.375345        -2214.33580
     27       2.00000         -81.375340        -2214.33568
     28       2.00000         -81.375340        -2214.33568
     29       2.00000         -26.849726         -730.61822
     30       2.00000         -26.849726         -730.61822
     31       2.00000         -20.085531         -546.55510
     32       2.00000         -20.085531         -546.55510
     33       2.00000         -20.085071         -546.54259
     34       2.00000         -20.085071         -546.54259
     35       2.00000         -20.085071         -546.54259
     36       2.00000         -20.085071         -546.54259
     37       2.00000         -11.986123         -326.15901
     38       2.00000         -11.986123         -326.15901
     39       2.00000         -11.985755         -326.14899
     40       2.00000         -11.985755         -326.14899
     41       2.00000         -11.985755         -326.14899
     42       2.00000         -11.985755         -326.14899
     43       2.00000         -11.985409         -326.13956
     44       2.00000         -11.985409         -326.13956
     45       2.00000         -11.985409         -326.13956
     46       2.00000         -11.985409         -326.13956
     47       2.00000          -3.982773         -108.37677
     48       2.00000          -3.982233         -108.36208
     49       2.00000          -2.996792          -81.54686
     50       2.00000          -2.996706          -81.54453
     51       2.00000          -2.996571          -81.54084
     52       2.00000          -2.996571          -81.54084
     53       2.00000          -2.996535          -81.53986
     54       2.00000          -2.996535          -81.53986
     55       2.00000          -2.996100          -81.52803
     56       2.00000          -2.996100          -81.52802
     57       2.00000          -2.996094          -81.52786
     58       2.00000          -2.996093          -81.52785
     59       2.00000          -2.995715          -81.51755
     60       2.00000          -2.995715          -81.51755
     61       2.00000          -2.995715          -81.51754
     62       2.00000          -2.995715          -81.51754
     63       2.00000          -2.207339          -60.06474
     64       2.00000          -2.197854          -59.80664
     65       2.00000          -2.196618          -59.77301
     66       2.00000          -2.196618          -59.77301
     67       2.00000          -2.195708          -59.74826
     68       2.00000          -2.195708          -59.74826
     69       2.00000          -0.329059           -8.95415
     70       2.00000          -0.289136           -7.86780
     71       2.00000          -0.289136           -7.86780
     72       2.00000          -0.258425           -7.03210
     73       2.00000          -0.258425           -7.03210
     74       2.00000          -0.246445           -6.70611
     75       2.00000          -0.246445           -6.70611
     76       2.00000          -0.241274           -6.56540
     77       2.00000          -0.231214           -6.29164
     78       2.00000          -0.231214           -6.29164
     79       2.00000          -0.229786           -6.25280
     80       0.00000          -0.151847           -4.13197
     81       0.00000          -0.007088           -0.19287
     82       0.00000          -0.007088           -0.19287
     83       0.00000           0.000000            0.00000
     84       0.00000           0.079296            2.15775
     85       0.00000           0.079296            2.15775
     86       0.00000           0.192925            5.24976
     87       0.00000           0.211227            5.74778
     88       0.00000           0.220152            5.99065
     89       0.00000           0.220180            5.99140
     90       0.00000           0.277399            7.54840
     91       0.00000           0.277399            7.54840
     92       0.00000           0.292920            7.97077
     93       0.00000           0.303714            8.26447
     94       0.00000           0.303716            8.26454
     95       0.00000           0.387109           10.53378
     96       0.00000           0.409618           11.14627
     97       0.00000           0.409618           11.14627

  Highest occupied state (VBM) at     -6.25279961 eV
  | Occupation number:      2.00000000

  Lowest unoccupied state (CBM) at    -4.13196634 eV
  | Occupation number:      0.00000000

  Overall HOMO-LUMO gap:      2.12083327 eV.

  Total energy components:
  | Sum of eigenvalues            :      -24768.22778987 Ha     -673977.76977384 eV
  | XC energy correction          :        -735.81091157 Ha      -20022.43363409 eV
  | XC potential correction       :         962.45032043 Ha       26189.60573135 eV
  | Free-atom electrostatic energy:      -14826.28183704 Ha     -403443.65577300 eV
  | Hartree energy correction     :           1.30215771 Ha          35.43351406 eV
  | Entropy correction            :           0.00000000 Ha           0.00000000 eV
  | ---------------------------
  | Total energy                  :      -39366.56806035 Ha    -1071218.81993553 eV
  | Total energy, T -> 0          :      -39366.56806035 Ha    -1071218.81993553 eV  <-- do not rely on this value for anything but (periodic) metals
  | Electronic free energy        :      -39366.56806035 Ha    -1071218.81993553 eV

  Derived energy quantities:
  | Kinetic energy                :       44182.70817386 Ha     1202272.66037008 eV
  | Electrostatic energy          :      -82813.46532263 Ha    -2253469.04667151 eV
  | Energy correction for multipole
  | error in Hartree potential    :          -0.00054828 Ha          -0.01491944 eV
  | Sum of eigenvalues per atom                           :     -336988.88488692 eV
  | Total energy (T->0) per atom                          :     -535609.40996776 eV  <-- do not rely on this value for anything but (periodic) metals
  | Electronic free energy per atom                       :     -535609.40996776 eV

  Self-consistency convergence accuracy:
  | Change of charge density      :  0.1160E+00
  | Change of sum of eigenvalues  : -0.3513E+02 eV
  | Change of total energy        : -0.5909E-01 eV

  End self-consistency iteration #     1       :  max(cpu_time)    wall_clock(cpu1)
  | Time for this iteration                    :        0.280 s           0.272 s
  | Charge density update                      :        0.110 s           0.108 s
  | Density mixing                             :        0.000 s           0.001 s
  | Hartree multipole update                   :        0.000 s           0.002 s
  | Hartree multipole summation                :        0.020 s           0.015 s
  | Integration                                :        0.130 s           0.133 s
  | Solution of K.-S. eqns.                    :        0.000 s           0.005 s
  | Total energy evaluation                    :        0.000 s           0.008 s
------------------------------------------------------------

------------------------------------------------------------
          Begin self-consistency iteration #    2

  Date     :  20160131, Time     :  144326.433
------------------------------------------------------------
  Evaluating new KS density.
  Integration grid: deviation in total charge (<rho> - N_e) =   1.421085E-13
  Pulay mixing of updated and previous charge densities.

  Evaluating partitioned Hartree potential by multipole expansion.
  | Analytical far-field extrapolation by fixed multipoles:
  | Hartree multipole sum: apparent total charge =  -0.639216E-04
  Summing up the Hartree potential.
  Time summed over all CPUs for potential: real work        0.028 s, elapsed        0.028 s
  | RMS charge density error from multipole expansion :   0.232220E-02

  Integrating Hamiltonian matrix: batch-based integration.
  Time summed over all CPUs for integration: real work        0.258 s, elapsed        0.258 s

  Updating Kohn-Sham eigenvalues, eigenvectors, occupation numbers, and Fermi level.
  Solving generalized eigenproblem
  Solving real symmetric generalised eigenvalue problem by standard ScaLAPACK.
  Using Cholesky factor for transformation
  Using 1-stage real ELPA solver
  Determining occupation numbers for Kohn-Sham eigenstates.
  | Chemical potential (Fermi level) in eV                 : -.55200182E+01
  | Error in electron count due to remaining E_F inaccuracy: 0.00000000E+00
  | Maximum occupation number of highest empty state:  0.00E+00

  Highest occupied state (VBM) at     -6.31224211 eV
  | Occupation number:      2.00000000

  Lowest unoccupied state (CBM) at    -4.26924294 eV
  | Occupation number:      0.00000000

  Overall HOMO-LUMO gap:      2.04299917 eV.

  Total energy components:
  | Sum of eigenvalues            :      -24769.12078387 Ha     -674002.06937681 eV
  | XC energy correction          :        -735.77701660 Ha      -20021.51130484 eV
  | XC potential correction       :         962.40601341 Ha       26188.40007611 eV
  | Free-atom electrostatic energy:      -14826.28183704 Ha     -403443.65577300 eV
  | Hartree energy correction     :           2.20146101 Ha          59.90480193 eV
  | Entropy correction            :           0.00000000 Ha           0.00000000 eV
  | ---------------------------
  | Total energy                  :      -39366.57216308 Ha    -1071218.93157662 eV
  | Total energy, T -> 0          :      -39366.57216308 Ha    -1071218.93157662 eV  <-- do not rely on this value for anything but (periodic) metals
  | Electronic free energy        :      -39366.57216308 Ha    -1071218.93157662 eV

  Derived energy quantities:
  | Kinetic energy                :       44182.46807877 Ha     1202266.12705048 eV
  | Electrostatic energy          :      -82813.26322526 Ha    -2253463.54732225 eV
  | Energy correction for multipole
  | error in Hartree potential    :          -0.00140651 Ha          -0.03827316 eV
  | Sum of eigenvalues per atom                           :     -337001.03468840 eV
  | Total energy (T->0) per atom                          :     -535609.46578831 eV  <-- do not rely on this value for anything but (periodic) metals
  | Electronic free energy per atom                       :     -535609.46578831 eV

  Self-consistency convergence accuracy:
  | Change of charge density      :  0.7105E-01
  | Change of sum of eigenvalues  : -0.2430E+02 eV
  | Change of total energy        : -0.1116E+00 eV

  End self-consistency iteration #     2       :  max(cpu_time)    wall_clock(cpu1)
  | Time for this iteration                    :        0.260 s           0.271 s
  | Charge density update                      :        0.110 s           0.117 s
  | Density mixing                             :        0.010 s           0.002 s
  | Hartree multipole update                   :        0.000 s           0.003 s
  | Hartree multipole summation                :        0.020 s           0.014 s
  | Integration                                :        0.130 s           0.130 s
  | Solution of K.-S. eqns.                    :        0.010 s           0.004 s
  | Total energy evaluation                    :        0.000 s           0.001 s
------------------------------------------------------------

------------------------------------------------------------
          Begin self-consistency iteration #    3

  Date     :  20160131, Time     :  144326.704
------------------------------------------------------------
  Evaluating new KS density.
  Integration grid: deviation in total charge (<rho> - N_e) =   1.136868E-13
  Pulay mixing of updated and previous charge densities.

  Evaluating partitioned Hartree potential by multipole expansion.
  | Analytical far-field extrapolation by fixed multipoles:
  | Hartree multipole sum: apparent total charge =  -0.109630E-03
  Summing up the Hartree potential.
  Time summed over all CPUs for potential: real work        0.028 s, elapsed        0.029 s
  | RMS charge density error from multipole expansion :   0.331679E-02

  Integrating Hamiltonian matrix: batch-based integration.
  Time summed over all CPUs for integration: real work        0.257 s, elapsed        0.257 s

  Updating Kohn-Sham eigenvalues, eigenvectors, occupation numbers, and Fermi level.
  Solving generalized eigenproblem
  Solving real symmetric generalised eigenvalue problem by standard ScaLAPACK.
  Using Cholesky factor for transformation
  Using 1-stage real ELPA solver
  Determining occupation numbers for Kohn-Sham eigenstates.
  | Chemical potential (Fermi level) in eV                 : -.54715703E+01
  | Error in electron count due to remaining E_F inaccuracy: 0.00000000E+00
  | Maximum occupation number of highest empty state:  0.00E+00

  Highest occupied state (VBM) at     -6.24757777 eV
  | Occupation number:      2.00000000

  Lowest unoccupied state (CBM) at    -4.22777573 eV
  | Occupation number:      0.00000000

  Overall HOMO-LUMO gap:      2.01980204 eV.

  Total energy components:
  | Sum of eigenvalues            :      -24768.13522179 Ha     -673975.25086820 eV
  | XC energy correction          :        -735.80077803 Ha      -20022.15788646 eV
  | XC potential correction       :         962.43768663 Ha       26189.26194828 eV
  | Free-atom electrostatic energy:      -14826.28183704 Ha     -403443.65577300 eV
  | Hartree energy correction     :           1.21744558 Ha          33.12837987 eV
  | Entropy correction            :           0.00000000 Ha           0.00000000 eV
  | ---------------------------
  | Total energy                  :      -39366.56270465 Ha    -1071218.67419951 eV
  | Total energy, T -> 0          :      -39366.56270465 Ha    -1071218.67419951 eV  <-- do not rely on this value for anything but (periodic) metals
  | Electronic free energy        :      -39366.56270465 Ha    -1071218.67419951 eV

  Derived energy quantities:
  | Kinetic energy                :       44183.00300470 Ha     1202280.68312550 eV
  | Electrostatic energy          :      -82813.76493131 Ha    -2253477.19943856 eV
  | Energy correction for multipole
  | error in Hartree potential    :          -0.00211050 Ha          -0.05742972 eV
  | Sum of eigenvalues per atom                           :     -336987.62543410 eV
  | Total energy (T->0) per atom                          :     -535609.33709976 eV  <-- do not rely on this value for anything but (periodic) metals
  | Electronic free energy per atom                       :     -535609.33709976 eV

  Self-consistency convergence accuracy:
  | Change of charge density      :  0.2719E-01
  | Change of sum of eigenvalues  :  0.2682E+02 eV
  | Change of total energy        :  0.2574E+00 eV

  End self-consistency iteration #     3       :  max(cpu_time)    wall_clock(cpu1)
  | Time for this iteration                    :        0.260 s           0.260 s
  | Charge density update                      :        0.100 s           0.106 s
  | Density mixing                             :        0.010 s           0.003 s
  | Hartree multipole update                   :        0.000 s           0.002 s
  | Hartree multipole summation                :        0.010 s           0.015 s
  | Integration                                :        0.130 s           0.129 s
  | Solution of K.-S. eqns.                    :        0.010 s           0.004 s
  | Total energy evaluation                    :        0.000 s           0.000 s
------------------------------------------------------------

------------------------------------------------------------
          Begin self-consistency iteration #    4

  Date     :  20160131, Time     :  144326.964
------------------------------------------------------------
  Evaluating new KS density.
  Integration grid: deviation in total charge (<rho> - N_e) =   5.684342E-14
  Pulay mixing of updated and previous charge densities.

  Evaluating partitioned Hartree potential by multipole expansion.
  | Analytical far-field extrapolation by fixed multipoles:
  | Hartree multipole sum: apparent total charge =  -0.118090E-03
  Summing up the Hartree potential.
  Time summed over all CPUs for potential: real work        0.028 s, elapsed        0.028 s
  | RMS charge density error from multipole expansion :   0.349777E-02

  Integrating Hamiltonian matrix: batch-based integration.
  Time summed over all CPUs for integration: real work        0.257 s, elapsed        0.257 s

  Updating Kohn-Sham eigenvalues, eigenvectors, occupation numbers, and Fermi level.
  Solving generalized eigenproblem
  Solving real symmetric generalised eigenvalue problem by standard ScaLAPACK.
  Using Cholesky factor for transformation
  Using 1-stage real ELPA solver
  Determining occupation numbers for Kohn-Sham eigenstates.
  | Chemical potential (Fermi level) in eV                 : -.54624368E+01
  | Error in electron count due to remaining E_F inaccuracy: 0.00000000E+00
  | Maximum occupation number of highest empty state:  0.00E+00

  Highest occupied state (VBM) at     -6.23289080 eV
  | Occupation number:      2.00000000

  Lowest unoccupied state (CBM) at    -4.21766613 eV
  | Occupation number:      0.00000000

  Overall HOMO-LUMO gap:      2.01522467 eV.

  Total energy components:
  | Sum of eigenvalues            :      -24767.97429870 Ha     -673970.87192791 eV
  | XC energy correction          :        -735.80433044 Ha      -20022.25455228 eV
  | XC potential correction       :         962.44243075 Ha       26189.39104220 eV
  | Free-atom electrostatic energy:      -14826.28183704 Ha     -403443.65577300 eV
  | Hartree energy correction     :           1.05675120 Ha          28.75566309 eV
  | Entropy correction            :           0.00000000 Ha           0.00000000 eV
  | ---------------------------
  | Total energy                  :      -39366.56128423 Ha    -1071218.63554790 eV
  | Total energy, T -> 0          :      -39366.56128423 Ha    -1071218.63554790 eV  <-- do not rely on this value for anything but (periodic) metals
  | Electronic free energy        :      -39366.56128423 Ha    -1071218.63554790 eV

  Derived energy quantities:
  | Kinetic energy                :       44183.07716849 Ha     1202282.70122489 eV
  | Electrostatic energy          :      -82813.83412228 Ha    -2253479.08222051 eV
  | Energy correction for multipole
  | error in Hartree potential    :          -0.00231144 Ha          -0.06289745 eV
  | Sum of eigenvalues per atom                           :     -336985.43596396 eV
  | Total energy (T->0) per atom                          :     -535609.31777395 eV  <-- do not rely on this value for anything but (periodic) metals
  | Electronic free energy per atom                       :     -535609.31777395 eV

  Self-consistency convergence accuracy:
  | Change of charge density      :  0.5747E-02
  | Change of sum of eigenvalues  :  0.4379E+01 eV
  | Change of total energy        :  0.3865E-01 eV

  End self-consistency iteration #     4       :  max(cpu_time)    wall_clock(cpu1)
  | Time for this iteration                    :        0.260 s           0.258 s
  | Charge density update                      :        0.100 s           0.104 s
  | Density mixing                             :        0.010 s           0.003 s
  | Hartree multipole update                   :        0.010 s           0.003 s
  | Hartree multipole summation                :        0.010 s           0.015 s
  | Integration                                :        0.130 s           0.129 s
  | Solution of K.-S. eqns.                    :        0.010 s           0.004 s
  | Total energy evaluation                    :        0.000 s           0.000 s
------------------------------------------------------------

------------------------------------------------------------
          Begin self-consistency iteration #    5

  Date     :  20160131, Time     :  144327.222
------------------------------------------------------------
  Evaluating new KS density.
  Integration grid: deviation in total charge (<rho> - N_e) =  -4.263256E-13
  Pulay mixing of updated and previous charge densities.

  Evaluating partitioned Hartree potential by multipole expansion.
  | Analytical far-field extrapolation by fixed multipoles:
  | Hartree multipole sum: apparent total charge =  -0.125199E-03
  Summing up the Hartree potential.
  Time summed over all CPUs for potential: real work        0.028 s, elapsed        0.028 s
  | RMS charge density error from multipole expansion :   0.366816E-02

  Integrating Hamiltonian matrix: batch-based integration.
  Time summed over all CPUs for integration: real work        0.257 s, elapsed        0.257 s

  Updating Kohn-Sham eigenvalues, eigenvectors, occupation numbers, and Fermi level.
  Solving generalized eigenproblem
  Solving real symmetric generalised eigenvalue problem by standard ScaLAPACK.
  Using Cholesky factor for transformation
  Using 1-stage real ELPA solver
  Determining occupation numbers for Kohn-Sham eigenstates.
  | Chemical potential (Fermi level) in eV                 : -.54557967E+01
  | Error in electron count due to remaining E_F inaccuracy: 0.00000000E+00
  | Maximum occupation number of highest empty state:  0.00E+00

  Highest occupied state (VBM) at     -6.22356221 eV
  | Occupation number:      2.00000000

  Lowest unoccupied state (CBM) at    -4.21211642 eV
  | Occupation number:      0.00000000

  Overall HOMO-LUMO gap:      2.01144579 eV.

  Total energy components:
  | Sum of eigenvalues            :      -24767.98783987 Ha     -673971.24040197 eV
  | XC energy correction          :        -735.80275545 Ha      -20022.21169459 eV
  | XC potential correction       :         962.44039702 Ha       26189.33570157 eV
  | Free-atom electrostatic energy:      -14826.28183704 Ha     -403443.65577300 eV
  | Hartree energy correction     :           1.07049605 Ha          29.12967952 eV
  | Entropy correction            :           0.00000000 Ha           0.00000000 eV
  | ---------------------------
  | Total energy                  :      -39366.56153929 Ha    -1071218.64248846 eV
  | Total energy, T -> 0          :      -39366.56153929 Ha    -1071218.64248846 eV  <-- do not rely on this value for anything but (periodic) metals
  | Electronic free energy        :      -39366.56153929 Ha    -1071218.64248846 eV

  Derived energy quantities:
  | Kinetic energy                :       44183.05259845 Ha     1202282.03264001 eV
  | Electrostatic energy          :      -82813.81138229 Ha    -2253478.46343389 eV
  | Energy correction for multipole
  | error in Hartree potential    :          -0.00264109 Ha          -0.07186760 eV
  | Sum of eigenvalues per atom                           :     -336985.62020098 eV
  | Total energy (T->0) per atom                          :     -535609.32124423 eV  <-- do not rely on this value for anything but (periodic) metals
  | Electronic free energy per atom                       :     -535609.32124423 eV

  Self-consistency convergence accuracy:
  | Change of charge density      :  0.3429E-02
  | Change of sum of eigenvalues  : -0.3685E+00 eV
  | Change of total energy        : -0.6941E-02 eV

  End self-consistency iteration #     5       :  max(cpu_time)    wall_clock(cpu1)
  | Time for this iteration                    :        0.260 s           0.262 s
  | Charge density update                      :        0.110 s           0.107 s
  | Density mixing                             :        0.010 s           0.003 s
  | Hartree multipole update                   :        0.010 s           0.003 s
  | Hartree multipole summation                :        0.010 s           0.015 s
  | Integration                                :        0.130 s           0.129 s
  | Solution of K.-S. eqns.                    :        0.010 s           0.004 s
  | Total energy evaluation                    :        0.000 s           0.001 s
------------------------------------------------------------

------------------------------------------------------------
          Begin self-consistency iteration #    6

  Date     :  20160131, Time     :  144327.484
------------------------------------------------------------
  Evaluating new KS density.
  Integration grid: deviation in total charge (<rho> - N_e) =  -3.410605E-13
  Pulay mixing of updated and previous charge densities.

  Evaluating partitioned Hartree potential by multipole expansion.
  | Analytical far-field extrapolation by fixed multipoles:
  | Hartree multipole sum: apparent total charge =  -0.124526E-03
  Summing up the Hartree potential.
  Time summed over all CPUs for potential: real work        0.028 s, elapsed        0.028 s
  | RMS charge density error from multipole expansion :   0.365725E-02

  Integrating Hamiltonian matrix: batch-based integration.
  Time summed over all CPUs for integration: real work        0.257 s, elapsed        0.258 s

  Updating Kohn-Sham eigenvalues, eigenvectors, occupation numbers, and Fermi level.
  Solving generalized eigenproblem
  Solving real symmetric generalised eigenvalue problem by standard ScaLAPACK.
  Using Cholesky factor for transformation
  Using 1-stage real ELPA solver
  Determining occupation numbers for Kohn-Sham eigenstates.
  | Chemical potential (Fermi level) in eV                 : -.54576996E+01
  | Error in electron count due to remaining E_F inaccuracy: 0.00000000E+00
  | Maximum occupation number of highest empty state:  0.00E+00

  Highest occupied state (VBM) at     -6.22733907 eV
  | Occupation number:      2.00000000

  Lowest unoccupied state (CBM) at    -4.21349810 eV
  | Occupation number:      0.00000000

  Overall HOMO-LUMO gap:      2.01384097 eV.

  Total energy components:
  | Sum of eigenvalues            :      -24768.02575593 Ha     -673972.27215056 eV
  | XC energy correction          :        -735.80204812 Ha      -20022.19244727 eV
  | XC potential correction       :         962.43945666 Ha       26189.31011303 eV
  | Free-atom electrostatic energy:      -14826.28183704 Ha     -403443.65577300 eV
  | Hartree energy correction     :           1.10833679 Ha          30.15937855 eV
  | Entropy correction            :           0.00000000 Ha           0.00000000 eV
  | ---------------------------
  | Total energy                  :      -39366.56184764 Ha    -1071218.65087924 eV
  | Total energy, T -> 0          :      -39366.56184764 Ha    -1071218.65087924 eV  <-- do not rely on this value for anything but (periodic) metals
  | Electronic free energy        :      -39366.56184764 Ha    -1071218.65087924 eV

  Derived energy quantities:
  | Kinetic energy                :       44183.04157089 Ha     1202281.73256508 eV
  | Electrostatic energy          :      -82813.80137042 Ha    -2253478.19099706 eV
  | Energy correction for multipole
  | error in Hartree potential    :          -0.00263622 Ha          -0.07173517 eV
  | Sum of eigenvalues per atom                           :     -336986.13607528 eV
  | Total energy (T->0) per atom                          :     -535609.32543962 eV  <-- do not rely on this value for anything but (periodic) metals
  | Electronic free energy per atom                       :     -535609.32543962 eV

  Self-consistency convergence accuracy:
  | Change of charge density      :  0.3980E-03
  | Change of sum of eigenvalues  : -0.1032E+01 eV
  | Change of total energy        : -0.8391E-02 eV

  End self-consistency iteration #     6       :  max(cpu_time)    wall_clock(cpu1)
  | Time for this iteration                    :        0.260 s           0.260 s
  | Charge density update                      :        0.110 s           0.104 s
  | Density mixing                             :        0.000 s           0.004 s
  | Hartree multipole update                   :        0.000 s           0.003 s
  | Hartree multipole summation                :        0.020 s           0.015 s
  | Integration                                :        0.130 s           0.129 s
  | Solution of K.-S. eqns.                    :        0.010 s           0.004 s
  | Total energy evaluation                    :        0.000 s           0.000 s
------------------------------------------------------------

------------------------------------------------------------
          Begin self-consistency iteration #    7

  Date     :  20160131, Time     :  144327.744
------------------------------------------------------------
  Evaluating new KS density.
  Integration grid: deviation in total charge (<rho> - N_e) =  -4.263256E-13
  Pulay mixing of updated and previous charge densities.

  Evaluating partitioned Hartree potential by multipole expansion.
  | Analytical far-field extrapolation by fixed multipoles:
  | Hartree multipole sum: apparent total charge =  -0.124460E-03
  Summing up the Hartree potential.
  Time summed over all CPUs for potential: real work        0.028 s, elapsed        0.029 s
  | RMS charge density error from multipole expansion :   0.365802E-02

  Integrating Hamiltonian matrix: batch-based integration.
  Time summed over all CPUs for integration: real work        0.259 s, elapsed        0.260 s

  Updating Kohn-Sham eigenvalues, eigenvectors, occupation numbers, and Fermi level.
  Solving generalized eigenproblem
  Solving real symmetric generalised eigenvalue problem by standard ScaLAPACK.
  Using Cholesky factor for transformation
  Using 1-stage real ELPA solver
  Determining occupation numbers for Kohn-Sham eigenstates.
  | Chemical potential (Fermi level) in eV                 : -.54579603E+01
  | Error in electron count due to remaining E_F inaccuracy: 0.00000000E+00
  | Maximum occupation number of highest empty state:  0.00E+00

  Highest occupied state (VBM) at     -6.22797305 eV
  | Occupation number:      2.00000000

  Lowest unoccupied state (CBM) at    -4.21387932 eV
  | Occupation number:      0.00000000

  Overall HOMO-LUMO gap:      2.01409373 eV.

  Total energy components:
  | Sum of eigenvalues            :      -24768.03077646 Ha     -673972.40876602 eV
  | XC energy correction          :        -735.80194801 Ha      -20022.18972314 eV
  | XC potential correction       :         962.43932402 Ha       26189.30650391 eV
  | Free-atom electrostatic energy:      -14826.28183704 Ha     -403443.65577300 eV
  | Hartree energy correction     :           1.11335317 Ha          30.29588106 eV
  | Entropy correction            :           0.00000000 Ha           0.00000000 eV
  | ---------------------------
  | Total energy                  :      -39366.56188432 Ha    -1071218.65187719 eV
  | Total energy, T -> 0          :      -39366.56188432 Ha    -1071218.65187719 eV  <-- do not rely on this value for anything but (periodic) metals
  | Electronic free energy        :      -39366.56188432 Ha    -1071218.65187719 eV

  Derived energy quantities:
  | Kinetic energy                :       44183.04097060 Ha     1202281.71623019 eV
  | Electrostatic energy          :      -82813.80090691 Ha    -2253478.17838425 eV
  | Energy correction for multipole
  | error in Hartree potential    :          -0.00264501 Ha          -0.07197449 eV
  | Sum of eigenvalues per atom                           :     -336986.20438301 eV
  | Total energy (T->0) per atom                          :     -535609.32593860 eV  <-- do not rely on this value for anything but (periodic) metals
  | Electronic free energy per atom                       :     -535609.32593860 eV

  Self-consistency convergence accuracy:
  | Change of charge density      :  0.7806E-04
  | Change of sum of eigenvalues  : -0.1366E+00 eV
  | Change of total energy        : -0.9980E-03 eV

  End self-consistency iteration #     7       :  max(cpu_time)    wall_clock(cpu1)
  | Time for this iteration                    :        0.260 s           0.264 s
  | Charge density update                      :        0.110 s           0.107 s
  | Density mixing                             :        0.000 s           0.005 s
  | Hartree multipole update                   :        0.000 s           0.002 s
  | Hartree multipole summation                :        0.020 s           0.015 s
  | Integration                                :        0.130 s           0.130 s
  | Solution of K.-S. eqns.                    :        0.000 s           0.005 s
  | Total energy evaluation                    :        0.000 s           0.000 s
------------------------------------------------------------

------------------------------------------------------------
          Begin self-consistency iteration #    8

  Date     :  20160131, Time     :  144328.009
------------------------------------------------------------
  Evaluating new KS density.
  Integration grid: deviation in total charge (<rho> - N_e) =  -1.989520E-13
  Pulay mixing of updated and previous charge densities.

  Evaluating partitioned Hartree potential by multipole expansion.
  | Analytical far-field extrapolation by fixed multipoles:
  | Hartree multipole sum: apparent total charge =  -0.124443E-03
  Summing up the Hartree potential.
  Time summed over all CPUs for potential: real work        0.028 s, elapsed        0.029 s
  | RMS charge density error from multipole expansion :   0.365723E-02

  Integrating Hamiltonian matrix: batch-based integration.
  Time summed over all CPUs for integration: real work        0.259 s, elapsed        0.260 s

  Updating Kohn-Sham eigenvalues, eigenvectors, occupation numbers, and Fermi level.
  Solving generalized eigenproblem
  Solving real symmetric generalised eigenvalue problem by standard ScaLAPACK.
  Using Cholesky factor for transformation
  Using 1-stage real ELPA solver
  Determining occupation numbers for Kohn-Sham eigenstates.
  | Chemical potential (Fermi level) in eV                 : -.54579285E+01
  | Error in electron count due to remaining E_F inaccuracy: 0.00000000E+00
  | Maximum occupation number of highest empty state:  0.00E+00

  Highest occupied state (VBM) at     -6.22781136 eV
  | Occupation number:      2.00000000

  Lowest unoccupied state (CBM) at    -4.21378053 eV
  | Occupation number:      0.00000000

  Overall HOMO-LUMO gap:      2.01403083 eV.

  Total energy components:
  | Sum of eigenvalues            :      -24768.02804298 Ha     -673972.33438435 eV
  | XC energy correction          :        -735.80201866 Ha      -20022.19164572 eV
  | XC potential correction       :         962.43941724 Ha       26189.30904044 eV
  | Free-atom electrostatic energy:      -14826.28183704 Ha     -403443.65577300 eV
  | Hartree energy correction     :           1.11062155 Ha          30.22155012 eV
  | Entropy correction            :           0.00000000 Ha           0.00000000 eV
  | ---------------------------
  | Total energy                  :      -39366.56185989 Ha    -1071218.65121251 eV
  | Total energy, T -> 0          :      -39366.56185989 Ha    -1071218.65121251 eV  <-- do not rely on this value for anything but (periodic) metals
  | Electronic free energy        :      -39366.56185989 Ha    -1071218.65121251 eV

  Derived energy quantities:
  | Kinetic energy                :       44183.04208718 Ha     1202281.74661388 eV
  | Electrostatic energy          :      -82813.80192841 Ha    -2253478.20618067 eV
  | Energy correction for multipole
  | error in Hartree potential    :          -0.00264380 Ha          -0.07194134 eV
  | Sum of eigenvalues per atom                           :     -336986.16719217 eV
  | Total energy (T->0) per atom                          :     -535609.32560626 eV  <-- do not rely on this value for anything but (periodic) metals
  | Electronic free energy per atom                       :     -535609.32560626 eV

  Self-consistency convergence accuracy:
  | Change of charge density      :  0.3650E-04
  | Change of sum of eigenvalues  :  0.7438E-01 eV
  | Change of total energy        :  0.6647E-03 eV

  End self-consistency iteration #     8       :  max(cpu_time)    wall_clock(cpu1)
  | Time for this iteration                    :        0.270 s           0.262 s
  | Charge density update                      :        0.110 s           0.103 s
  | Density mixing                             :        0.000 s           0.006 s
  | Hartree multipole update                   :        0.010 s           0.003 s
  | Hartree multipole summation                :        0.010 s           0.015 s
  | Integration                                :        0.130 s           0.130 s
  | Solution of K.-S. eqns.                    :        0.000 s           0.004 s
  | Total energy evaluation                    :        0.000 s           0.001 s
------------------------------------------------------------

------------------------------------------------------------
          Begin self-consistency iteration #    9

  Date     :  20160131, Time     :  144328.271
------------------------------------------------------------
  Evaluating new KS density.
  Integration grid: deviation in total charge (<rho> - N_e) =   1.705303E-13
  Pulay mixing of updated and previous charge densities.

  Evaluating partitioned Hartree potential by multipole expansion.
  | Analytical far-field extrapolation by fixed multipoles:
  | Hartree multipole sum: apparent total charge =  -0.124447E-03
  Summing up the Hartree potential.
  Time summed over all CPUs for potential: real work        0.028 s, elapsed        0.029 s
  | RMS charge density error from multipole expansion :   0.365724E-02

  Integrating Hamiltonian matrix: batch-based integration.
  Time summed over all CPUs for integration: real work        0.259 s, elapsed        0.261 s

  Updating Kohn-Sham eigenvalues, eigenvectors, occupation numbers, and Fermi level.
  Solving generalized eigenproblem
  Solving real symmetric generalised eigenvalue problem by standard ScaLAPACK.
  Using Cholesky factor for transformation
  Using 1-stage real ELPA solver
  Determining occupation numbers for Kohn-Sham eigenstates.
  | Chemical potential (Fermi level) in eV                 : -.54579217E+01
  | Error in electron count due to remaining E_F inaccuracy: 0.00000000E+00
  | Maximum occupation number of highest empty state:  0.00E+00

  Highest occupied state (VBM) at     -6.22779781 eV
  | Occupation number:      2.00000000

  Lowest unoccupied state (CBM) at    -4.21377386 eV
  | Occupation number:      0.00000000

  Overall HOMO-LUMO gap:      2.01402395 eV.

  Total energy components:
  | Sum of eigenvalues            :      -24768.02803848 Ha     -673972.33426174 eV
  | XC energy correction          :        -735.80201705 Ha      -20022.19160172 eV
  | XC potential correction       :         962.43941512 Ha       26189.30898278 eV
  | Free-atom electrostatic energy:      -14826.28183704 Ha     -403443.65577300 eV
  | Hartree energy correction     :           1.11061719 Ha          30.22143142 eV
  | Entropy correction            :           0.00000000 Ha           0.00000000 eV
  | ---------------------------
  | Total energy                  :      -39366.56186025 Ha    -1071218.65122227 eV
  | Total energy, T -> 0          :      -39366.56186025 Ha    -1071218.65122227 eV  <-- do not rely on this value for anything but (periodic) metals
  | Electronic free energy        :      -39366.56186025 Ha    -1071218.65122227 eV

  Derived energy quantities:
  | Kinetic energy                :       44183.04201901 Ha     1202281.74475883 eV
  | Electrostatic energy          :      -82813.80186221 Ha    -2253478.20437937 eV
  | Energy correction for multipole
  | error in Hartree potential    :          -0.00264416 Ha          -0.07195116 eV
  | Sum of eigenvalues per atom                           :     -336986.16713087 eV
  | Total energy (T->0) per atom                          :     -535609.32561113 eV  <-- do not rely on this value for anything but (periodic) metals
  | Electronic free energy per atom                       :     -535609.32561113 eV

  Self-consistency convergence accuracy:
  | Change of charge density      :  0.3253E-05
  | Change of sum of eigenvalues  :  0.1226E-03 eV
  | Change of total energy        : -0.9753E-05 eV

  End self-consistency iteration #     9       :  max(cpu_time)    wall_clock(cpu1)
  | Time for this iteration                    :        0.270 s           0.263 s
  | Charge density update                      :        0.110 s           0.104 s
  | Density mixing                             :        0.010 s           0.006 s
  | Hartree multipole update                   :        0.010 s           0.003 s
  | Hartree multipole summation                :        0.010 s           0.015 s
  | Integration                                :        0.130 s           0.130 s
  | Solution of K.-S. eqns.                    :        0.010 s           0.005 s
  | Total energy evaluation                    :        0.000 s           0.000 s
------------------------------------------------------------

------------------------------------------------------------
          Begin self-consistency iteration #   10

  Date     :  20160131, Time     :  144328.534
------------------------------------------------------------
  Evaluating new KS density.
  Integration grid: deviation in total charge (<rho> - N_e) =   5.684342E-14
  Pulay mixing of updated and previous charge densities.

  Evaluating partitioned Hartree potential by multipole expansion.
  | Analytical far-field extrapolation by fixed multipoles:
  | Hartree multipole sum: apparent total charge =  -0.124447E-03
  Summing up the Hartree potential.
  Time summed over all CPUs for potential: real work        0.028 s, elapsed        0.029 s
  | RMS charge density error from multipole expansion :   0.365724E-02

  Integrating Hamiltonian matrix: batch-based integration.
  Time summed over all CPUs for integration: real work        0.259 s, elapsed        0.259 s

  Updating Kohn-Sham eigenvalues, eigenvectors, occupation numbers, and Fermi level.
  Solving generalized eigenproblem
  Solving real symmetric generalised eigenvalue problem by standard ScaLAPACK.
  Using Cholesky factor for transformation
  Using 1-stage real ELPA solver
  Determining occupation numbers for Kohn-Sham eigenstates.
  | Chemical potential (Fermi level) in eV                 : -.54579216E+01
  | Error in electron count due to remaining E_F inaccuracy: 0.00000000E+00
  | Maximum occupation number of highest empty state:  0.00E+00

  Highest occupied state (VBM) at     -6.22779970 eV
  | Occupation number:      2.00000000

  Lowest unoccupied state (CBM) at    -4.21377599 eV
  | Occupation number:      0.00000000

  Overall HOMO-LUMO gap:      2.01402371 eV.

  Total energy components:
  | Sum of eigenvalues            :      -24768.02807199 Ha     -673972.33517363 eV
  | XC energy correction          :        -735.80201605 Ha      -20022.19157461 eV
  | XC potential correction       :         962.43941381 Ha       26189.30894703 eV
  | Free-atom electrostatic energy:      -14826.28183704 Ha     -403443.65577300 eV
  | Hartree energy correction     :           1.11065071 Ha          30.22234341 eV
[...]
     33       2.00000         -20.084652         -546.53118
     34       2.00000         -20.084652         -546.53118
     35       2.00000         -20.084480         -546.52650
     36       2.00000         -20.084480         -546.52650
     37       2.00000         -11.985560         -326.14368
     38       2.00000         -11.985560         -326.14368
     39       2.00000         -11.985038         -326.12948
     40       2.00000         -11.985038         -326.12948
     41       2.00000         -11.985038         -326.12947
     42       2.00000         -11.985038         -326.12947
     43       2.00000         -11.984975         -326.12777
     44       2.00000         -11.984975         -326.12777
     45       2.00000         -11.984975         -326.12777
     46       2.00000         -11.984975         -326.12777
     47       2.00000          -3.982438         -108.36764
     48       2.00000          -3.981903         -108.35310
     49       2.00000          -2.996461          -81.53784
     50       2.00000          -2.996373          -81.53545
     51       2.00000          -2.996112          -81.52835
     52       2.00000          -2.996112          -81.52835
     53       2.00000          -2.996075          -81.52736
     54       2.00000          -2.996075          -81.52736
     55       2.00000          -2.995418          -81.50947
     56       2.00000          -2.995417          -81.50946
     57       2.00000          -2.995412          -81.50930
     58       2.00000          -2.995411          -81.50928
     59       2.00000          -2.995154          -81.50228
     60       2.00000          -2.995154          -81.50228
     61       2.00000          -2.995153          -81.50227
     62       2.00000          -2.995153          -81.50227
     63       2.00000          -2.211234          -60.17073
     64       2.00000          -2.201873          -59.91602
     65       2.00000          -2.193342          -59.68388
     66       2.00000          -2.193342          -59.68388
     67       2.00000          -2.192445          -59.65947
     68       2.00000          -2.192445          -59.65947
     69       2.00000          -0.330452           -8.99205
     70       2.00000          -0.287213           -7.81547
     71       2.00000          -0.287213           -7.81547
     72       2.00000          -0.251687           -6.84875
     73       2.00000          -0.251687           -6.84874
     74       2.00000          -0.239992           -6.53052
     75       2.00000          -0.239992           -6.53052
     76       2.00000          -0.234059           -6.36908
     77       2.00000          -0.231445           -6.29794
     78       2.00000          -0.231445           -6.29794
     79       2.00000          -0.228867           -6.22780
     80       0.00000          -0.154853           -4.21378
     81       0.00000          -0.001866           -0.05077
     82       0.00000          -0.000687           -0.01868
     83       0.00000          -0.000687           -0.01868
     84       0.00000           0.083289            2.26642
     85       0.00000           0.083289            2.26642
     86       0.00000           0.192512            5.23852
     87       0.00000           0.216760            5.89834
     88       0.00000           0.226843            6.17271
     89       0.00000           0.226871            6.17347
     90       0.00000           0.279560            7.60722
     91       0.00000           0.279560            7.60722
     92       0.00000           0.295084            8.02965
     93       0.00000           0.308339            8.39032
     94       0.00000           0.308342            8.39040
     95       0.00000           0.387401           10.54171
     96       0.00000           0.413676           11.25671
     97       0.00000           0.413676           11.25671

  Highest occupied state (VBM) at     -6.22779930 eV
  | Occupation number:      2.00000000

  Lowest unoccupied state (CBM) at    -4.21377575 eV
  | Occupation number:      0.00000000

  Overall HOMO-LUMO gap:      2.01402355 eV.

  Self-consistency cycle converged.

  End self-consistency iteration #    11       :  max(cpu_time)    wall_clock(cpu1)
  | Time for this iteration                    :        0.270 s           0.265 s
  | Charge density update                      :        0.110 s           0.105 s
  | Density mixing                             :        0.010 s           0.006 s
  | Hartree multipole update                   :        0.010 s           0.003 s
  | Hartree multipole summation                :        0.020 s           0.015 s
  | Integration                                :        0.130 s           0.129 s
  | Solution of K.-S. eqns.                    :        0.000 s           0.004 s
  | Total energy evaluation                    :        0.000 s           0.000 s
------------------------------------------------------------

------------------------------------------------------------
          Post-processing: scaled ZORA corrections to eigenvalues and total energy.

  Date     :  20160131, Time     :  144329.064
------------------------------------------------------------
  Computing correction matrix for scaled ZORA eigenvalues.
  Evaluating scaled zora correction for each Kohn-Sham eigenstate.
  Evaluating scaled zora correction for each Kohn-Sham eigenstate.
  Determining occupation numbers for Kohn-Sham eigenstates.
  | Chemical potential (Fermi level) in eV                 : -.51196444E+01
  | Error in electron count due to remaining E_F inaccuracy: 0.00000000E+00
  | Maximum occupation number of highest empty state:  0.00E+00

  Writing Kohn-Sham eigenvalues.

  State    Occupation    Eigenvalue [Ha]    Eigenvalue [eV]
      1       2.00000       -2962.066432       -80601.92859
      2       2.00000       -2962.066429       -80601.92850
      3       2.00000        -522.538341       -14218.99172
      4       2.00000        -522.538341       -14218.99170
      5       2.00000        -451.593198       -12288.47616
      6       2.00000        -451.593198       -12288.47616
      7       2.00000        -451.593198       -12288.47615
      8       2.00000        -451.593198       -12288.47615
      9       2.00000        -451.593035       -12288.47170
     10       2.00000        -451.593034       -12288.47168
     11       2.00000        -123.365072        -3356.93442
     12       2.00000        -123.365072        -3356.93441
     13       2.00000        -102.796603        -2797.23790
     14       2.00000        -102.796603        -2797.23790
     15       2.00000        -102.796603        -2797.23790
     16       2.00000        -102.796603        -2797.23790
     17       2.00000        -102.795131        -2797.19783
     18       2.00000        -102.795130        -2797.19782
     19       2.00000         -80.890377        -2201.13916
     20       2.00000         -80.890377        -2201.13916
     21       2.00000         -80.890377        -2201.13916
     22       2.00000         -80.890377        -2201.13916
     23       2.00000         -80.889335        -2201.11079
     24       2.00000         -80.889335        -2201.11079
     25       2.00000         -80.889335        -2201.11079
     26       2.00000         -80.889335        -2201.11079
     27       2.00000         -80.889146        -2201.10565
     28       2.00000         -80.889146        -2201.10565
     29       2.00000         -26.786255         -728.89110
     30       2.00000         -26.786255         -728.89109
     31       2.00000         -20.043399         -545.40864
     32       2.00000         -20.043399         -545.40864
     33       2.00000         -20.043399         -545.40864
     34       2.00000         -20.043399         -545.40864
     35       2.00000         -20.043231         -545.40407
     36       2.00000         -20.043231         -545.40407
     37       2.00000         -11.964660         -325.57497
     38       2.00000         -11.964660         -325.57497
     39       2.00000         -11.964137         -325.56073
     40       2.00000         -11.964137         -325.56073
     41       2.00000         -11.964137         -325.56073
     42       2.00000         -11.964137         -325.56073
     43       2.00000         -11.964076         -325.55907
     44       2.00000         -11.964076         -325.55907
     45       2.00000         -11.964076         -325.55907
     46       2.00000         -11.964076         -325.55907
     47       2.00000          -3.980102         -108.30409
     48       2.00000          -3.979566         -108.28951
     49       2.00000          -2.992481          -81.42956
     50       2.00000          -2.992393          -81.42716
     51       2.00000          -2.992132          -81.42007
     52       2.00000          -2.992132          -81.42007
     53       2.00000          -2.992096          -81.41907
     54       2.00000          -2.992096          -81.41907
     55       2.00000          -2.991439          -81.40121
     56       2.00000          -2.991439          -81.40120
     57       2.00000          -2.991433          -81.40103
     58       2.00000          -2.991433          -81.40102
     59       2.00000          -2.991175          -81.39403
     60       2.00000          -2.991175          -81.39403
     61       2.00000          -2.991175          -81.39401
     62       2.00000          -2.991175          -81.39401
     63       2.00000          -2.210264          -60.14434
     64       2.00000          -2.200893          -59.88935
     65       2.00000          -2.192373          -59.65751
     66       2.00000          -2.192373          -59.65751
     67       2.00000          -2.191475          -59.63306
     68       2.00000          -2.191475          -59.63306
     69       2.00000          -0.330396           -8.99054
     70       2.00000          -0.287157           -7.81395
     71       2.00000          -0.287157           -7.81395
     72       2.00000          -0.251636           -6.84736
     73       2.00000          -0.251636           -6.84735
     74       2.00000          -0.239941           -6.52913
     75       2.00000          -0.239941           -6.52913
     76       2.00000          -0.234038           -6.36849
     77       2.00000          -0.231394           -6.29655
     78       2.00000          -0.231394           -6.29655
     79       2.00000          -0.228820           -6.22651
     80       0.00000          -0.154842           -4.21348
     81       0.00000          -0.001865           -0.05076
     82       0.00000          -0.000687           -0.01868
     83       0.00000          -0.000687           -0.01868
     84       0.00000           0.083284            2.26627
     85       0.00000           0.083284            2.26627
     86       0.00000           0.192494            5.23803
     87       0.00000           0.216741            5.89783
     88       0.00000           0.226826            6.17226
     89       0.00000           0.226854            6.17302
     90       0.00000           0.279537            7.60659
     91       0.00000           0.279537            7.60659
     92       0.00000           0.295060            8.02898
     93       0.00000           0.308316            8.38970
     94       0.00000           0.308318            8.38977
     95       0.00000           0.387364           10.54072
     96       0.00000           0.413641           11.25575
     97       0.00000           0.413641           11.25575

  Highest occupied state (VBM) at     -6.22651138 eV
  | Occupation number:      2.00000000

  Lowest unoccupied state (CBM) at    -4.21347777 eV
  | Occupation number:      0.00000000

  Overall HOMO-LUMO gap:      2.01303361 eV.

  Total energy components:
  | Sum of eigenvalues            :      -23420.96582507 Ha     -637316.90642723 eV
  | XC energy correction          :        -735.80201616 Ha      -20022.19157749 eV
  | XC potential correction       :         962.43941394 Ha       26189.30895078 eV
  | Free-atom electrostatic energy:      -14826.28183704 Ha     -403443.65577300 eV
  | Hartree energy correction     :           1.11064681 Ha          30.22223727 eV
  | Entropy correction            :           0.00000000 Ha           0.00000000 eV
  | ---------------------------
  | Total energy                  :      -38019.49961751 Ha    -1034563.22258967 eV
  | Total energy, T -> 0          :      -38019.49961751 Ha    -1034563.22258967 eV  <-- do not rely on this value for anything but (periodic) metals
  | Electronic free energy        :      -38019.49961751 Ha    -1034563.22258967 eV

  Derived energy quantities:
  | Kinetic energy                :       45530.10424619 Ha     1238937.17296823 eV
  | Electrostatic energy          :      -82813.80184755 Ha    -2253478.20398041 eV
  | Energy correction for multipole
  | error in Hartree potential    :          -0.00264419 Ha          -0.07195218 eV
  | Sum of eigenvalues per atom                           :     -318658.45321362 eV
  | Total energy (T->0) per atom                          :     -517281.61129484 eV  <-- do not rely on this value for anything but (periodic) metals
  | Electronic free energy per atom                       :     -517281.61129484 eV
  End evaluation of scaled ZORA corrections.
  | Time for scaled ZORA corrections           :        0.150 s           0.179 s
------------------------------------------------------------

  Energy and forces in a compact form:
  | Total energy uncorrected      :         -0.103456322258967E+07 eV
  | Total energy corrected        :         -0.103456322258967E+07 eV  <-- do not rely on this value for anything but (periodic) metals
  | Electronic free energy        :         -0.103456322258967E+07 eV

  ------------------------------------ 
  Start decomposition of the XC Energy 
  ------------------------------------ 
  Hartree-Fock part   :          0.000000000 Ha              0.000000000 eV
  ------------------------------------ 
  X Energy            :       -726.160070898 Ha         -19759.820897757 eV
  C Energy GGA        :         -9.641945258 Ha           -262.370679732 eV
  Total XC Energy     :       -735.802016156 Ha         -20022.191577489 eV
  LDA X and C from self-consistent density 
  X Energy LDA        :       -696.945691534 Ha         -18964.857187962 eV
  C Energy LDA        :        -16.540173126 Ha           -450.081010617 eV
  ------------------------------------ 
  End decomposition of the XC Energy 
  ------------------------------------ 

------------------------------------------------------------------------------
  Final output of selected total energy values:

  The following output summarizes some interesting total energy values
  at the end of a run (AFTER all relaxation, molecular dynamics, etc.).

  | Total energy of the DFT / Hartree-Fock s.c.f. calculation      :       -1034563.222589674 eV
  | Final zero-broadening corrected energy (caution - metals only) :       -1034563.222589674 eV
  | For reference only, the value of 1 Hartree used in FHI-aims is :             27.211384500 eV

  Before relying on these values, please be sure to understand exactly which
  total energy value is referred to by a given number. Different objects may
  all carry the same name 'total energy'. Definitions:

  Total energy of the DFT / Hartree-Fock s.c.f. calculation:
  | Note that this energy does not include ANY quantities calculated after the
  | s.c.f. cycle, in particular not ANY RPA, MP2, etc. many-body perturbation terms.
  | Scalar relativistic effects have been included in the 'scaled ZORA' approximation.

  Final zero-broadening corrected energy:
  | For metallic systems only, a broadening of the occupation numbers at the Fermi
  | level can be extrapolated back to zero broadening by an electron-gas inspired
  | formula. For all systems that are not real metals, this value can be
  | meaningless and should be avoided.

------------------------------------------------------------------------------
  Methods described in the following list of references were used in this FHI-aims run.
  If you publish the results, please make sure to cite these reference if they apply.
  FHI-aims is an academic code, and for our developers (often, Ph.D. students
  and postdocs), scientific credit in the community is essential.
  Thank you for helping us!

  For any use of FHI-aims, please cite:

    Volker Blum, Ralf Gehrke, Felix Hanke, Paula Havu, Ville Havu,
    Xinguo Ren, Karsten Reuter, and Matthias Scheffler
    'Ab initio molecular simulations with numeric atom-centered orbitals'
    Computer Physics Communications 180, 2175-2196 (2009)
    http://dx.doi.org/10.1016/j.cpc.2009.06.022


  The scalable eigensolver library ELPA was used in your run.
  ELPA is essential especially for large systems on hundreds or thousands of CPUs.
  For ELPA, please cite:

    Andreas Marek, Volker Blum, Rainer Johanni, Ville Havu, Bruno Lang,
    Thomas Auckenthaler, Alexander Heinecke, Hans-Joachim Bungartz, and Hermann Lederer,
    'The ELPA Library - Scalable Parallel Eigenvalue Solutions
    for Electronic Structure Theory and Computational Science'
    The Journal of Physics: Condensed Matter 26, 213201 (2014).
    http://dx.doi.org/10.1088/0953-8984/26/21/213201


  For the real-space grid partitioning and parallelization used in this calculation, please cite:

    Ville Havu, Volker Blum, Paula Havu, and Matthias Scheffler,
    'Efficient O(N) integration for all-electron electronic structure calculation'
    'using numerically tabulated basis functions'
    Journal of Computational Physics 228, 8367-8379 (2009).
    http://dx.doi.org/10.1016/j.jcp.2009.08.008

  Of course, there are many other important community references, e.g., those cited in the
  above references. Our list is limited to references that describe implementations in the
  FHI-aims code. The reason is purely practical (length of this list) - please credit others as well.

 * A warning was issued further up regarding the accuracy of onsite integrals.
   An integral with a negative eigenvalue was among the flagged integrals.
   In most standard situations, this warning is probably harmless.
   If needed, this can be verified by adjusting the radial_multiplier flag.

------------------------------------------------------------
          Leaving FHI-aims.
          Date     :  20160131, Time     :  144329.260

          Computational steps:
          | Number of self-consistency cycles          :           11

          Detailed time accounting                     :  max(cpu_time)    wall_clock(cpu1)
          | Total time                                 :        3.820 s           3.888 s
          | Preparation time                           :        0.510 s           0.522 s
          | Grid partitioning                          :        0.020 s           0.019 s
          | Preloading free-atom quantities on grid    :        0.000 s           0.003 s
          | Free-atom superposition energy             :        0.010 s           0.011 s
          | Total time for integrations                :        1.590 s           1.592 s
          | Total time for solution of K.-S. equations :        0.070 s           0.056 s
          | Total time for density update              :        1.180 s           1.170 s
          | Total time for mixing                      :        0.070 s           0.045 s
          | Total time for Hartree multipole update    :        0.050 s           0.030 s
          | Total time for Hartree multipole sum       :        0.170 s           0.164 s
          | Total time for total energy evaluation     :        0.000 s           0.012 s
          | Total time for scaled ZORA corrections     :        0.150 s           0.179 s

          Have a nice day.
------------------------------------------------------------
