  MPI-parallelism will be employed.
------------------------------------------------------------
          Invoking FHI-aims ...
          Version 151211
          Git rev. (modified): d01ffe6 [mbddev] implement print out of MBD bands
          Compiled on 2015/12/11 at 14:59:51 on host theobook27.

          When using FHI-aims, please cite the following reference:

          Volker Blum, Ralf Gehrke, Felix Hanke, Paula Havu,
          Ville Havu, Xinguo Ren, Karsten Reuter, and Matthias Scheffler,
          'Ab Initio Molecular Simulations with Numeric Atom-Centered Orbitals: FHI-aims',
          Computer Physics Communications 180, 2175-2196 (2009)

          For any questions about FHI-aims, please visit the aimsclub website
          with its forums and wiki. Contributions to both the forums and the
          wiki are warmly encouraged - they are for you, and everyone is welcome there.

------------------------------------------------------------

  Date     :  20160131, Time     :  144017.837
  Time zero on CPU 1             :   0.300000000000000E-01  s.
  Internal wall clock time zero  :           223483217.837  s.

  Using        2 parallel tasks.
  Task        0 on host theobook27 reporting.
  Task        1 on host theobook27 reporting.

  Performing system and environment tests:
  | Environment variable OMP_NUM_THREADS correctly set to 1.
  | Stacksize not measured: no C compiler
  | Checking for scalapack...
  | Testing pdtran()...
  | All pdtran() tests passed.

  Obtaining array dimensions for all initial allocations:
  
  -----------------------------------------------------------------------
  Parsing control.in (first pass over file, find array dimensions only).
  The contents of control.in will be repeated verbatim below
  unless switched off by setting 'verbatim_writeout .false.' .
  in the first line of control.in .
  -----------------------------------------------------------------------
  
    xc                 pbe
    charge             0.
    spin               none
    relativistic       atomic_zora scalar
    occupation_type    gaussian 0.01
    sc_accuracy_rho    1E-5
    sc_accuracy_eev    1E-3
    sc_accuracy_etot   1E-6
    sc_accuracy_forces 1E-3
    relax_geometry     bfgs 1E-2
  ################################################################################
  #
  #  FHI-aims code project
  #  VB, Fritz-Haber Institut, 2009
  #
  #  Suggested "light" defaults for Au atom (to be pasted into control.in file)
  #  Be sure to double-check any results obtained with these settings for post-processing,
  #  e.g., with the "tight" defaults and larger basis sets.
  #
  ################################################################################
    species        Au
  #     global species definitions
      nucleus             79
      mass                196.966569
  #
      l_hartree           4
  #
      cut_pot             3.5  1.5  1.0
      basis_dep_cutoff    1e-4
  #
      radial_base         73 5.0
      radial_multiplier   1
      angular_grids specified
        division   0.5066   50
        division   0.9861  110
        division   1.2821  194
        division   1.5344  302
  #      division   2.0427  434
  #      division   2.1690  590
  #      division   2.2710  770
  #      division   2.3066  974
  #      division   2.7597 1202
  #      outer_grid 974
        outer_grid 302
  ################################################################################
  #
  #  Definition of "minimal" basis
  #
  ################################################################################
  #     valence basis states
      valence      6  s   1.
      valence      5  p   6.
      valence      5  d  10.
      valence      4  f  14.
  #     ion occupancy
      ion_occ     6  s   0.
      ion_occ     5  p   6.
      ion_occ     5  d   9.
      ion_occ     4  f   14.
  ################################################################################
  #
  #  Suggested additional basis functions. For production calculations,
  #  uncomment them one after another (the most important basis functions are
  #  listed first).
  #
  #  Constructed for dimers: 2.10, 2.45, 3.00, 4.00 AA
  #
  ################################################################################
  #  "First tier" - max. impr. -161.60  meV, min. impr. -4.53 meV
       ionic 6 p auto
       hydro 4 f 7.4
       ionic 6 s auto
  #     hydro 5 g 10
  #     hydro 6 h 12.8
       hydro 3 d 2.5
  #  "Second tier" - max. impr. -2.46  meV, min. impr. -0.28 meV
  #     hydro 5 f 14.8
  #     hydro 4 d 3.9
  #     hydro 3 p 3.3
  #     hydro 1 s 0.45
  #     hydro 5 g 16.4
  #     hydro 6 h 13.6
  #  "Third tier" - max. impr. -0.49  meV, min. impr. -0.09 meV
  #     hydro 4 f 5.2
  #     hydro 4 d 5
  #     hydro 5 g 8
  #     hydro 5 p 8.2
  #     hydro 6 d 12.4
  #     hydro 6 s 14.8
  #  Further basis functions: -0.08 meV and below
  #     hydro 5 f 18.8
  #     hydro 5 g 20
  #    hydro 5 g 15.2
  
  -----------------------------------------------------------------------
  Completed first pass over input file control.in .
  -----------------------------------------------------------------------
  
  
  -----------------------------------------------------------------------
  Parsing geometry.in (first pass over file, find array dimensions only).
  The contents of geometry.in will be repeated verbatim below
  unless switched off by setting 'verbatim_writeout .false.' .
  in the first line of geometry.in .
  -----------------------------------------------------------------------
  
  atom 0.0 0.0 0.0 Au
  atom 0.0 0.0 3.0 Au
  
  -----------------------------------------------------------------------
  Completed first pass over input file geometry.in .
  -----------------------------------------------------------------------
  

  Basic array size parameters:
  | Number of species                 :        1
  | Number of atoms                   :        2
  | Max. basis fn. angular momentum   :        3
  | Max. atomic/ionic basis occupied n:        6
  | Max. number of basis fn. types    :        3
  | Max. radial fns per species/type  :       14
  | Max. logarithmic grid size        :     1488
  | Max. radial integration grid size :       73
  | Max. angular integration grid size:      302
  | Max. angular grid division number :        8
  | Radial grid for Hartree potential :     1488
  | Number of spin channels           :        1

------------------------------------------------------------
          Reading file control.in.
------------------------------------------------------------
  XC: Using PBE gradient-corrected functionals.
  Charge =   0.000000E+00: Neutral system requested explicitly.
  Spin treatment: No spin polarisation.
  Scalar relativistic treatment of kinetic energy: on-site free-atom approximation to ZORA.
  Occupation type: Gaussian broadening, width =   0.100000E-01 eV.
  Convergence accuracy of self-consistent charge density:  0.1000E-04
  Convergence accuracy of sum of eigenvalues:  0.1000E-02
  Convergence accuracy of total energy:  0.1000E-05
  Convergence accuracy of forces:  0.1000E-02
  Geometry relaxation: Modified BFGS - TRM (trust radius method, i.e., trusted quadratic extrapolation).
  Convergence accuracy for geometry relaxation: Maximum force <   0.100000E-01 eV/A.
 
  Reading configuration options for species Au                  .
  | Found nuclear charge :  79.0000
  | Found atomic mass :    196.966569000000      amu
  | Found l_max for Hartree potential  :   4
  | Found cutoff potl. onset [A], width [A], scale factor :    3.50000    1.50000    1.00000
  | Threshold for basis-dependent cutoff potential is   0.100000E-03
  | Found data for basic radial integration grid :    73 points, outermost radius =    5.000 A
  | Found multiplier for basic radial grid :   1
  | Found angular grid specification: user-specified.
  | Specified grid contains     5 separate shells.
  | Check grid settings after all constraints further below.
  | Found free-atom valence shell :  6 s   1.000
  | Found free-atom valence shell :  5 p   6.000
  | Found free-atom valence shell :  5 d  10.000
  | Found free-atom valence shell :  4 f  14.000
  | Found free-ion valence shell :  6 s   0.000
  | Found free-ion valence shell :  5 p   6.000
  | Found free-ion valence shell :  5 d   9.000
  | Found free-ion valence shell :  4 f  14.000
  | Found ionic basis function :  6 p , default cutoff radius.
  | Found hydrogenic basis function :  4 f   7.400
  | Found ionic basis function :  6 s , default cutoff radius.
  | Found hydrogenic basis function :  3 d   2.500
  Species Au                  : Missing cutoff potential type.
  Defaulting to exp(1/x)/(1-x)^2 type cutoff potential.
  Species Au: No 'logarithmic' tag. Using default grid for free atom:
  | Default logarithmic grid data [bohr] : 0.1000E-03 0.1000E+03 0.1012E+01
  | Will include ionic basis functions of  2.0-fold positive Au                   ion.
  Species Au: On-site basis accuracy parameter (for Gram-Schmidt orthonormalisation) not specified.
  Using default value basis_acc =  0.1000000E-03.
  Species Au                  : Using default innermost maximum threshold i_radial=  2 for radial functions.
  Species Au                  : Default cutoff onset for free atom density etc. : 0.35000000E+01 AA.
  Species Au                  : Basic radial grid will be enhanced according to radial_multiplier =   1, to contain    73 grid points.
 
  Finished reading input file 'control.in'. Consistency checks are next.
 
  Target number of points in a grid batch is not set. Defaulting to  100
  Method for grid partitioning is not set. Defaulting to parallel hash+maxmin partitioning.
  Batch size limit is not set. Defaulting to    200
  By default, will store active basis functions for each batch.
  If in need of memory, prune_basis_once .false. can be used to disable this option.
  communication_type for Hartree potential was not specified.
  Defaulting to calc_hartree .
  Defaulting to Pulay charge density mixer.
  Pulay mixer: Number of relevant iterations not set.
  Defaulting to    8 iterations.
  Pulay mixer: Number of initial linear mixing iterations not set.
  Defaulting to    0 iterations.
  Work space size for distributed Hartree potential not set.
  Defaulting to   0.200000E+03 MB.
  Mixing parameter for charge density mixing has not been set.
  Using default: charge_mix_param =     0.2000.
  Algorithm-dependent basis array size parameters:
  | n_max_pulay                         :        8
  Maximum number of self-consistency iterations not provided.
  Presetting  1000 iterations.
  No maximum number of relaxation steps, defaulting to     1000
  Default initial Hessian is Lindh matrix (thres = 15.00) plus  0.200000E+01 eV/A^2 times unity.
  No maximum energy tolerance for TRM/BFGS moves, defaulting to   0.200000E-03
  No harmonic length scale. Defaulting to   0.250000E-01 A.
  No trust radius initializer. Defaulting to   0.200000E+00 A.
  Handling of forces: Unphysical translation and rotation will be removed from forces.
  No accuracy limit for integral partition fn. given. Defaulting to  0.1000E-14.
  No threshold value for u(r) in integrations given. Defaulting to  0.1000E-05.
  No accuracy for occupation numbers given. Defaulting to  0.1000E-07.
  No threshold value for occupation numbers given. Defaulting to  0.0000E+00.
  No accuracy for fermi level given. Defaulting to  0.1000E-19.
  Maximum # of iterations to find E_F not set. Defaulting to  200.
  Preferred method for the eigenvalue solver ('KS_method') not specified in 'control.in'.
  Calling blacs routine to test compilation state
  Since scalapack support is enabled, defaulting to 'elpa'.
  Will not use alltoall communication since running on < 1024 CPUs.
  Threshold for basis singularities not set.
  Default threshold for basis singularities:  0.1000E-04
  partition_type (choice of integration weights) for integrals was not specified.
  | Using a version of the partition function of Stratmann and coworkers ('stratmann_smoother').
  | At each grid point, the set of atoms used to build the partition table is smoothly restricted to
  | only those atoms whose free-atom density would be non-zero at that grid point.
  Partitioning for Hartree potential was not defined. Using partition_type for integrals.
  | Adjusted default value of keyword multip_moments_threshold to:       0.10000000E-11
  | This value may affect high angular momentum components of the Hartree potential in periodic systems.
  No q(lm)/r^(l+1) cutoff set for long-range Hartree potential.
  | Using default value of  0.100000E-09 .
  | Verify using the multipole_threshold keyword.
  Defaulting to new monopole extrapolation.
  Density update method: automatic selection selected.
  Geometry relaxation: A file "geometry.in.next_step" is written out by default after each step.
  | This file contains the geometry of the current relaxation step as well as
  | the current Hessian matrix needed to restart the relaxation algorithm.
  | If you do not want part or all of this information, use the keywords
  | "write_restart_geometry" or "hessian_to_restart_geometry" to switch the output off.
------------------------------------------------------------


------------------------------------------------------------
          Reading geometry description geometry.in.
------------------------------------------------------------
  Input structure read successfully.
  The structure contains        2 atoms,  and a total of        158.000 electrons.

  Input geometry:
  | No unit cell requested.
  | Atomic structure:
  |       Atom                x [A]            y [A]            z [A]
  |    1: Species Au             0.000000         0.000000         0.000000
  |    2: Species Au             0.000000         0.000000         3.000000
  |

  | The smallest distance between any two atoms is         3.00000000 AA.
  |
  | The first atom of this pair is atom number                      1 .
  | The second atom of this pair is atom number                     2 .

  Number of empty states per atom not set in control.in - providing a guess from actual geometry.
  | Total number of empty states used during s.c.f. cycle:       18
  If you use a very high smearing, use empty_states (per atom!) in control.in to increase this value.

  Structure-dependent array size parameters: 
  | Maximum number of distinct radial functions  :       18
  | Maximum number of basis functions            :      112
  | Number of Kohn-Sham states (occupied + empty):       97
------------------------------------------------------------

------------------------------------------------------------
          Preparing all fixed parts of the calculation.
------------------------------------------------------------
  Determining machine precision:
    2.225073858507201E-308
  Setting up grids for atomic and cluster calculations.

  Creating wave function, potential, and density for free atoms.

  Species: Au

  List of occupied orbitals and eigenvalues:
    n    l              occ      energy [Ha]    energy [eV]
    1    0           2.0000     -3256.431199    -88612.0015
    2    0           2.0000      -533.654865    -14521.4877
    3    0           2.0000      -124.232088     -3380.5271
    4    0           2.0000       -26.843821      -730.4575
    5    0           2.0000        -3.974251      -108.1449
    6    0           1.0000        -0.207180        -5.6377
    2    1           6.0000      -460.384091    -12527.6885
    3    1           6.0000      -103.448928     -2814.9886
    4    1           6.0000       -20.075789      -546.2900
    5    1           6.0000        -2.189737       -59.5858
    3    2          10.0000       -81.364825     -2214.0495
    4    2          10.0000       -11.975168      -325.8609
    5    2          10.0000        -0.249072        -6.7776
    4    3          14.0000        -2.985533       -81.2405

  Creating fixed part of basis set: Ionic, confined, hydrogenic.
 
  Au                   ion:

  List of free ionic orbitals and eigenvalues:
    n    l      energy [Ha]    energy [eV]
    1    0     -3257.305345    -88635.7882
    2    0      -534.468969    -14543.6406
    3    0      -125.037161     -3402.4343
    4    0       -27.646714      -752.3054
    5    0        -4.773414      -129.8912
    2    1      -461.196653    -12549.7994
    3    1      -104.253556     -2836.8836
    4    1       -20.878488      -568.1326
    5    1        -2.984283       -81.2065
    3    2       -82.168946     -2235.9308
    4    2       -12.777596      -347.6961
    5    2        -1.004504       -27.3340
    4    3        -3.787521      -103.0637


  List of ionic basis orbitals and eigenvalues:
    n    l      energy [Ha]    energy [eV]    outer radius [A]
    6    1        -0.535414       -14.5694       4.560053
    6    0        -0.835538       -22.7361       4.504645

 
  Au                   hydrogenic:
 
  List of hydrogenic basis orbitals: 
    n    l      effective z      eigenvalue [eV]  inner max. [A]     outer max. [A]     outer radius [A]   
    4    3         7.400000       -46.5648           1.145580           1.145580           4.504645
    3    2         2.500000        -9.0892           1.822958           1.822958           4.616141
 

  Adding cutoff potential to free-atom effective potential.
  Creating atomic-like basis functions for current effective potential.

  Species Au                  :

  List of atomic basis orbitals and eigenvalues:
    n    l      energy [Ha]    energy [eV]    outer radius [A]
    1    0     -3256.431199    -88612.0015       0.120816
    2    0      -533.654865    -14521.4877       0.313506
    3    0      -124.232088     -3380.5271       0.652830
    4    0       -26.843821      -730.4575       1.359424
    5    0        -3.974251      -108.1449       3.318406
    6    0        -0.207180        -5.6377       4.560053
    2    1      -460.384091    -12527.6885       0.329217
    3    1      -103.448928     -2814.9886       0.702515
    4    1       -20.075789      -546.2900       1.536198
    5    1        -2.189737       -59.5858       4.035315
    3    2       -81.364825     -2214.0495       0.755981
    4    2       -11.975168      -325.8609       1.868078
    5    2        -0.249072        -6.7776       4.504645
    4    3        -2.985533       -81.2405       3.198908

  Assembling full basis from fixed parts.
  | Species Au :   atomic orbital   1 s accepted.
  | Species Au :   atomic orbital   2 s accepted.
  | Species Au :   atomic orbital   3 s accepted.
  | Species Au :   atomic orbital   4 s accepted.
  | Species Au :   atomic orbital   5 s accepted.
  | Species Au :    ionic orbital   6 s accepted.
  | Species Au :   atomic orbital   6 s accepted.
  | Species Au :   atomic orbital   2 p accepted.
  | Species Au :   atomic orbital   3 p accepted.
  | Species Au :   atomic orbital   4 p accepted.
  | Species Au :   atomic orbital   5 p accepted.
  | Species Au :    ionic orbital   6 p accepted.
  | Species Au :   atomic orbital   3 d accepted.
  | Species Au :   atomic orbital   4 d accepted.
  | Species Au :   atomic orbital   5 d accepted.
  | Species Au :    hydro orbital   3 d accepted.
  | Species Au :   atomic orbital   4 f accepted.
  | Species Au :    hydro orbital   4 f accepted.
 
  Basis size parameters after reduction:
  | Total number of radial functions:       18
  | Total number of basis functions :      112
 
  Testing on-site integration grid accuracy.
  |  Species  Function  <phi|h_atom|phi> (log., in eV)  <phi|h_atom|phi> (rad., in eV)
           1        1             -88612.0014632775             -88611.6712034180 ***
           1        2             -14521.4877182964             -14521.4813999840
           1        3              -3380.5271184873              -3380.5267747403
           1        4               -730.4575387750               -730.4575126103
           1        5               -108.1448599487               -108.1448564257
           1        6                 -5.0942970264                 -5.0944290505
           1        7                  6.1115134725                  6.0788143786 ***
           1        8             -12527.6885190593             -12527.6885173588
           1        9              -2814.9885638658              -2814.9885482953
           1       10               -546.2900141357               -546.2900083742
           1       11                -59.5857773529                -59.5857755927
           1       12                  0.8801786309                  0.8779179090
           1       13              -2214.0495316492              -2214.0495265682
           1       14               -325.8609015357               -325.8608990336
           1       15                 -6.7779523923                 -6.7780549541
           1       16                  6.8774732691                  6.8534371069
           1       17                -81.2404736787                -81.2404731538
           1       18                 21.6950885255                 21.6950713539
 * Note: Onsite integrals marked "***" above are less accurate than
 * onsite_accuracy_threshold =    0.03000 eV. Usually, this is harmless.
 * However, one integral did have a negative value. This integral could be important.
 * When in doubt, tighten the "radial" and/or "radial_multiplier" flags to check.

  Preparing densities etc. for the partition functions (integrals / Hartree potential).

  Preparations completed.
  max(cpu_time)          :      0.540 s.
  Wall clock time (cpu1) :      0.538 s.
------------------------------------------------------------

------------------------------------------------------------
          Begin self-consistency loop: Initialization.

          Date     :  20160131, Time     :  144018.412
------------------------------------------------------------

  Initializing index lists of integration centers etc. from given atomic structure:
  | Number of centers in hartree potential         :         2
  | Number of centers in hartree multipole         :         2
  | Number of centers in electron density summation:         2
  | Number of centers in basis integrals           :         2
  | Number of centers in integrals                 :         2
  | Number of centers in hamiltonian               :         2
  Initializing relaxation algorithms.
  Using modified Scalapack Eigenvalue solver (ELPA)
  * Using 2 tasks for Scalapack Eigenvalue solver.
  Detailed listing of tasks and assigned k-points:
  (for non-periodic systems, the "k-point" denotes an internal label only)
   Task     0 k-point     1 on theobook27
   Task     1 k-point     1 on theobook27
  Tasks:     2 split into      2 X      1 BLACS grid
  Calculating blocksize based on n_basis =          112 max_nprow =            2 max_npcol =            1
  Scalapack blocksize set to:           16
  Required Scalapack workspace - INTEGER:            1 REAL:             1
  Partitioning the integration grid into batches with parallel hashing+maxmin method.
  | Number of batches:      255
  | Maximal batch size:     142
  | Minimal batch size:      68
  | Average batch size:      71.545
  | Standard deviation of batch sizes:       4.798

  Integration load balanced across     2 MPI tasks.
  Work distribution over tasks is as follows:
  Task     0 has       9159 integration points.
  Task     1 has       9085 integration points.
  Initializing partition tables, free-atom densities, potentials, etc. across the integration grid (initialize_grid_storage).
  | initialize_grid_storage: Actual outermost partition radius vs. multipole_radius_free
  | (-- VB: in principle, multipole_radius_free should be larger, hence this output)
  | Species        1: Confinement radius =              4.999999999999999 AA, multipole_radius_free =              5.028561921230412 AA.
  | Species        1: outer_partition_radius set to              5.028561921230412 AA .
  | Original list of interatomic distances with           2 x          2 entries is created.
  | Net number of integration points:    18244
  | of which are non-zero points    :    18040
  Obtaining max. number of non-zero basis functions in each batch (get_n_compute_maxes).
  | Maximal number of non-zero basis functions:       93 in task     0
  | Maximal number of non-zero basis functions:       93 in task     1
  Selecting the method for density update.
  split updates selected: force will be updated via density matrix and electron density via Kohn Sham orbitals.
  Scalapack and split updates requested:
  Switching to packed matrix format "index" by default.
  Hamiltonian matrix size:
  | Size of matrix non-packed:        6328
  | Size of matrix packed:            5961
  Integrating Hamiltonian matrix: batch-based integration.
  Time summed over all CPUs for integration: real work        0.141 s, elapsed        0.144 s
  Integrating overlap matrix.
  Time summed over all CPUs for integration: real work        0.062 s, elapsed        0.062 s
  Decreasing sparse matrix size:
   Tolerance:  9.999999824516700E-014
   Hamiltonian matrix
  | Array has     1373 nonzero elements out of     5961 elements
  | Sparsity factor is 0.770
   Overlap matrix
  | Array has     1251 nonzero elements out of     5961 elements
  | Sparsity factor is 0.790
  New size of hamiltonian matrix:        3784
  Deallocating overlap matrix.

  Updating Kohn-Sham eigenvalues, eigenvectors, occupation numbers, and Fermi level.
  Solving generalized eigenproblem
  Solving real symmetric generalised eigenvalue problem by standard ScaLAPACK.
  Transforming overlap matrix with ScaLAPACK and checking for singularities.
  : Overlap matrix is nonsingular, using Cholesky decomposition
  | Lowest eigenvalue:  0.634975E-01
  Factoring overlap matrix with Cholesky decomposition
  Using Cholesky factor for transformation
  Using 1-stage real ELPA solver
  Determining occupation numbers for Kohn-Sham eigenstates.
  | Chemical potential (Fermi level) in eV                 : -.52869661E+01
  | Error in electron count due to remaining E_F inaccuracy: 0.00000000E+00
  | Maximum occupation number of highest empty state:  0.00E+00

  Writing Kohn-Sham eigenvalues.

  State    Occupation    Eigenvalue [Ha]    Eigenvalue [eV]
      1       2.00000       -3256.411245       -88611.45848
      2       2.00000       -3256.411245       -88611.45848
      3       2.00000        -533.652521       -14521.42393
      4       2.00000        -533.652521       -14521.42393
      5       2.00000        -460.384311       -12527.69451
      6       2.00000        -460.384311       -12527.69451
      7       2.00000        -460.384310       -12527.69447
      8       2.00000        -460.384310       -12527.69447
      9       2.00000        -460.384310       -12527.69447
     10       2.00000        -460.384310       -12527.69447
     11       2.00000        -124.231767        -3380.51839
     12       2.00000        -124.231767        -3380.51839
     13       2.00000        -103.449190        -2814.99568
     14       2.00000        -103.449190        -2814.99568
     15       2.00000        -103.449178        -2814.99536
     16       2.00000        -103.449178        -2814.99536
     17       2.00000        -103.449178        -2814.99536
     18       2.00000        -103.449178        -2814.99536
     19       2.00000         -81.365074        -2214.05632
     20       2.00000         -81.365074        -2214.05632
     21       2.00000         -81.365072        -2214.05625
     22       2.00000         -81.365072        -2214.05625
     23       2.00000         -81.365072        -2214.05625
     24       2.00000         -81.365072        -2214.05625
     25       2.00000         -81.365065        -2214.05607
     26       2.00000         -81.365065        -2214.05607
     27       2.00000         -81.365065        -2214.05607
     28       2.00000         -81.365065        -2214.05607
     29       2.00000         -26.843957         -730.46123
     30       2.00000         -26.843957         -730.46123
     31       2.00000         -20.076120         -546.29902
     32       2.00000         -20.076120         -546.29902
     33       2.00000         -20.076055         -546.29725
     34       2.00000         -20.076055         -546.29725
     35       2.00000         -20.076055         -546.29725
     36       2.00000         -20.076055         -546.29725
     37       2.00000         -11.975500         -325.86992
     38       2.00000         -11.975500         -325.86992
     39       2.00000         -11.975478         -325.86934
     40       2.00000         -11.975478         -325.86934
     41       2.00000         -11.975478         -325.86934
     42       2.00000         -11.975478         -325.86934
     43       2.00000         -11.975426         -325.86792
     44       2.00000         -11.975426         -325.86792
     45       2.00000         -11.975426         -325.86792
     46       2.00000         -11.975426         -325.86792
     47       2.00000          -3.974729         -108.15788
     48       2.00000          -3.974688         -108.15677
     49       2.00000          -2.985895          -81.25034
     50       2.00000          -2.985888          -81.25014
     51       2.00000          -2.985879          -81.24989
     52       2.00000          -2.985879          -81.24989
     53       2.00000          -2.985876          -81.24982
     54       2.00000          -2.985876          -81.24982
     55       2.00000          -2.985841          -81.24886
     56       2.00000          -2.985841          -81.24886
     57       2.00000          -2.985840          -81.24885
     58       2.00000          -2.985840          -81.24885
     59       2.00000          -2.985790          -81.24749
     60       2.00000          -2.985790          -81.24749
     61       2.00000          -2.985790          -81.24749
     62       2.00000          -2.985790          -81.24749
     63       2.00000          -2.191432          -59.63189
     64       2.00000          -2.190206          -59.59853
     65       2.00000          -2.190206          -59.59853
     66       2.00000          -2.190095          -59.59551
     67       2.00000          -2.190095          -59.59551
     68       2.00000          -2.190059          -59.59454
     69       2.00000          -0.285756           -7.77581
     70       2.00000          -0.263246           -7.16328
     71       2.00000          -0.263246           -7.16328
     72       2.00000          -0.251799           -6.85181
     73       2.00000          -0.251799           -6.85179
     74       2.00000          -0.247537           -6.73583
     75       2.00000          -0.247537           -6.73583
     76       2.00000          -0.239376           -6.51377
     77       2.00000          -0.239376           -6.51377
     78       2.00000          -0.237517           -6.46316
     79       2.00000          -0.233145           -6.34419
     80       0.00000          -0.168656           -4.58936
     81       0.00000          -0.005803           -0.15791
     82       0.00000           0.000752            0.02047
     83       0.00000           0.000752            0.02047
     84       0.00000           0.061595            1.67607
     85       0.00000           0.061595            1.67607
     86       0.00000           0.147105            4.00293
     87       0.00000           0.213220            5.80200
     88       0.00000           0.221644            6.03125
     89       0.00000           0.221758            6.03435
     90       0.00000           0.253581            6.90028
     91       0.00000           0.253581            6.90028
     92       0.00000           0.283955            7.72681
     93       0.00000           0.289863            7.88757
     94       0.00000           0.289918            7.88908
     95       0.00000           0.361205            9.82889
     96       0.00000           0.372795           10.14426
     97       0.00000           0.372795           10.14426

  Highest occupied state (VBM) at     -6.34418699 eV
  | Occupation number:      2.00000000

  Lowest unoccupied state (CBM) at    -4.58936153 eV
  | Occupation number:      0.00000000

  Overall HOMO-LUMO gap:      1.75482547 eV.
  Calculating total energy contributions from superposition of free atom densities.

  Total energy components:
  | Sum of eigenvalues            :      -24769.59072575 Ha     -674014.85714592 eV
  | XC energy correction          :        -735.80293530 Ha      -20022.21658861 eV
  | XC potential correction       :         962.43514061 Ha       26189.19266734 eV
  | Free-atom electrostatic energy:      -14826.62824481 Ha     -403453.08200815 eV
  | Hartree energy correction     :           0.00000000 Ha           0.00000000 eV
  | Entropy correction            :           0.00000000 Ha           0.00000000 eV
  | ---------------------------
  | Total energy                  :      -39369.58676525 Ha    -1071300.96307534 eV
  | Total energy, T -> 0          :      -39369.58676525 Ha    -1071300.96307534 eV  <-- do not rely on this value for anything but (periodic) metals
  | Electronic free energy        :      -39369.58676525 Ha    -1071300.96307534 eV

  Derived energy quantities:
  | Kinetic energy                :       44179.97607015 Ha     1202198.31604561 eV
  | Electrostatic energy          :      -82813.75990010 Ha    -2253477.06253234 eV
  | Energy correction for multipole
  | error in Hartree potential    :           0.00000000 Ha           0.00000000 eV
  | Sum of eigenvalues per atom                           :     -337007.42857296 eV
  | Total energy (T->0) per atom                          :     -535650.48153767 eV  <-- do not rely on this value for anything but (periodic) metals
  | Electronic free energy per atom                       :     -535650.48153767 eV
  Initialize hartree_potential_storage
  Max. number of atoms included in rho_multipole:            2

  End scf initialization - timings             :  max(cpu_time)    wall_clock(cpu1)
  | Time for scf. initialization               :        0.170 s           0.187 s
  | Boundary condition initialization          :        0.000 s           0.000 s
  | Relaxation initialization                  :        0.000 s           0.016 s
  | Integration                                :        0.110 s           0.103 s
  | Solution of K.-S. eqns.                    :        0.010 s           0.011 s
  | Grid partitioning                          :        0.030 s           0.027 s
  | Preloading free-atom quantities on grid    :        0.000 s           0.003 s
  | Free-atom superposition energy             :        0.010 s           0.011 s
  | Total energy evaluation                    :        0.010 s           0.000 s
------------------------------------------------------------

------------------------------------------------------------
          Begin self-consistency iteration #    1

  Date     :  20160131, Time     :  144018.599
------------------------------------------------------------
  Evaluating new KS density.
  Integration grid: deviation in total charge (<rho> - N_e) =  -8.526513E-14
  Pulay mixing of updated and previous charge densities.

  Evaluating partitioned Hartree potential by multipole expansion.
  | Analytical far-field extrapolation by fixed multipoles:
  | Hartree multipole sum: apparent total charge =  -0.153726E-04
  Summing up the Hartree potential.
  Time summed over all CPUs for potential: real work        0.028 s, elapsed        0.028 s
  | RMS charge density error from multipole expansion :   0.481714E-03

  Integrating Hamiltonian matrix: batch-based integration.
  Time summed over all CPUs for integration: real work        0.138 s, elapsed        0.138 s

  Updating Kohn-Sham eigenvalues, eigenvectors, occupation numbers, and Fermi level.
  Solving generalized eigenproblem
  Solving real symmetric generalised eigenvalue problem by standard ScaLAPACK.
  Using Cholesky factor for transformation
  Using 1-stage real ELPA solver
  Determining occupation numbers for Kohn-Sham eigenstates.
  | Chemical potential (Fermi level) in eV                 : -.52835650E+01
  | Error in electron count due to remaining E_F inaccuracy: 0.00000000E+00
  | Maximum occupation number of highest empty state:  0.00E+00

  Writing Kohn-Sham eigenvalues.

  State    Occupation    Eigenvalue [Ha]    Eigenvalue [eV]
      1       2.00000       -3256.418821       -88611.66464
      2       2.00000       -3256.418821       -88611.66464
      3       2.00000        -533.660071       -14521.62937
      4       2.00000        -533.660071       -14521.62937
      5       2.00000        -460.391898       -12527.90097
      6       2.00000        -460.391898       -12527.90097
      7       2.00000        -460.391898       -12527.90097
      8       2.00000        -460.391898       -12527.90097
      9       2.00000        -460.391854       -12527.89976
     10       2.00000        -460.391854       -12527.89976
     11       2.00000        -124.238773        -3380.70902
     12       2.00000        -124.238773        -3380.70902
     13       2.00000        -103.456297        -2815.18908
     14       2.00000        -103.456297        -2815.18908
     15       2.00000        -103.456297        -2815.18908
     16       2.00000        -103.456297        -2815.18908
     17       2.00000        -103.455953        -2815.17971
     18       2.00000        -103.455953        -2815.17971
     19       2.00000         -81.372312        -2214.25328
     20       2.00000         -81.372312        -2214.25328
     21       2.00000         -81.372312        -2214.25328
     22       2.00000         -81.372312        -2214.25328
     23       2.00000         -81.372069        -2214.24666
     24       2.00000         -81.372069        -2214.24666
     25       2.00000         -81.372069        -2214.24666
     26       2.00000         -81.372069        -2214.24666
     27       2.00000         -81.372024        -2214.24542
     28       2.00000         -81.372024        -2214.24542
     29       2.00000         -26.850139         -730.62946
     30       2.00000         -26.850139         -730.62946
     31       2.00000         -20.082194         -546.46430
     32       2.00000         -20.082194         -546.46430
     33       2.00000         -20.082194         -546.46430
     34       2.00000         -20.082194         -546.46430
     35       2.00000         -20.082129         -546.46254
     36       2.00000         -20.082129         -546.46254
     37       2.00000         -11.981568         -326.03505
     38       2.00000         -11.981568         -326.03505
     39       2.00000         -11.981479         -326.03263
     40       2.00000         -11.981479         -326.03263
     41       2.00000         -11.981479         -326.03263
     42       2.00000         -11.981479         -326.03263
     43       2.00000         -11.981444         -326.03167
     44       2.00000         -11.981444         -326.03167
     45       2.00000         -11.981444         -326.03167
     46       2.00000         -11.981444         -326.03167
     47       2.00000          -3.979051         -108.27550
     48       2.00000          -3.979012         -108.27442
     49       2.00000          -2.991869          -81.41291
     50       2.00000          -2.991862          -81.41271
     51       2.00000          -2.991800          -81.41103
     52       2.00000          -2.991800          -81.41103
     53       2.00000          -2.991798          -81.41096
     54       2.00000          -2.991798          -81.41096
     55       2.00000          -2.991660          -81.40722
     56       2.00000          -2.991660          -81.40722
     57       2.00000          -2.991660          -81.40721
     58       2.00000          -2.991660          -81.40721
     59       2.00000          -2.991622          -81.40618
     60       2.00000          -2.991622          -81.40618
     61       2.00000          -2.991622          -81.40618
     62       2.00000          -2.991622          -81.40618
     63       2.00000          -2.196589          -59.77223
     64       2.00000          -2.195250          -59.73578
     65       2.00000          -2.193083          -59.67683
     66       2.00000          -2.193083          -59.67683
     67       2.00000          -2.192975          -59.67388
     68       2.00000          -2.192975          -59.67388
     69       2.00000          -0.286597           -7.79869
     70       2.00000          -0.264764           -7.20460
     71       2.00000          -0.264764           -7.20460
     72       2.00000          -0.252144           -6.86119
     73       2.00000          -0.252143           -6.86117
     74       2.00000          -0.248033           -6.74931
     75       2.00000          -0.248032           -6.74930
     76       2.00000          -0.242001           -6.58518
     77       2.00000          -0.242001           -6.58518
     78       2.00000          -0.239935           -6.52898
     79       2.00000          -0.231553           -6.30088
     80       0.00000          -0.171356           -4.66283
     81       0.00000          -0.007629           -0.20760
     82       0.00000           0.002798            0.07615
     83       0.00000           0.002798            0.07615
     84       0.00000           0.062098            1.68976
     85       0.00000           0.062098            1.68976
     86       0.00000           0.146289            3.98071
     87       0.00000           0.214773            5.84427
     88       0.00000           0.223643            6.08565
     89       0.00000           0.223758            6.08875
     90       0.00000           0.253713            6.90389
     91       0.00000           0.253713            6.90389
     92       0.00000           0.283762            7.72155
     93       0.00000           0.290747            7.91162
     94       0.00000           0.290802            7.91313
     95       0.00000           0.359825            9.79134
     96       0.00000           0.372921           10.14770
     97       0.00000           0.372921           10.14770

  Highest occupied state (VBM) at     -6.30088083 eV
  | Occupation number:      2.00000000

  Lowest unoccupied state (CBM) at    -4.66283232 eV
  | Occupation number:      0.00000000

  Overall HOMO-LUMO gap:      1.63804851 eV.

  Total energy components:
  | Sum of eigenvalues            :      -24770.46295900 Ha     -674038.59182025 eV
  | XC energy correction          :        -735.77295855 Ha      -20021.40087979 eV
  | XC potential correction       :         962.39573705 Ha       26188.12044216 eV
  | Free-atom electrostatic energy:      -14826.62824481 Ha     -403453.08200815 eV
  | Hartree energy correction     :           0.88669658 Ha          24.12824163 eV
  | Entropy correction            :           0.00000000 Ha           0.00000000 eV
  | ---------------------------
  | Total energy                  :      -39369.58172872 Ha    -1071300.82602440 eV
  | Total energy, T -> 0          :      -39369.58172872 Ha    -1071300.82602440 eV  <-- do not rely on this value for anything but (periodic) metals
  | Electronic free energy        :      -39369.58172872 Ha    -1071300.82602440 eV

  Derived energy quantities:
  | Kinetic energy                :       44179.66182151 Ha     1202189.76490511 eV
  | Electrostatic energy          :      -82813.47059168 Ha    -2253469.19004972 eV
  | Energy correction for multipole
  | error in Hartree potential    :          -0.00013810 Ha          -0.00375779 eV
  | Sum of eigenvalues per atom                           :     -337019.29591013 eV
  | Total energy (T->0) per atom                          :     -535650.41301220 eV  <-- do not rely on this value for anything but (periodic) metals
  | Electronic free energy per atom                       :     -535650.41301220 eV

  Self-consistency convergence accuracy:
  | Change of charge density      :  0.8316E-01
  | Change of sum of eigenvalues  : -0.2373E+02 eV
  | Change of total energy        :  0.1371E+00 eV

  End self-consistency iteration #     1       :  max(cpu_time)    wall_clock(cpu1)
  | Time for this iteration                    :        0.200 s           0.204 s
  | Charge density update                      :        0.110 s           0.106 s
  | Density mixing                             :        0.000 s           0.001 s
  | Hartree multipole update                   :        0.000 s           0.002 s
  | Hartree multipole summation                :        0.020 s           0.015 s
  | Integration                                :        0.070 s           0.069 s
  | Solution of K.-S. eqns.                    :        0.000 s           0.005 s
  | Total energy evaluation                    :        0.000 s           0.006 s
------------------------------------------------------------

------------------------------------------------------------
          Begin self-consistency iteration #    2

  Date     :  20160131, Time     :  144018.803
------------------------------------------------------------
  Evaluating new KS density.
  Integration grid: deviation in total charge (<rho> - N_e) =  -1.989520E-13
  Pulay mixing of updated and previous charge densities.

  Evaluating partitioned Hartree potential by multipole expansion.
  | Analytical far-field extrapolation by fixed multipoles:
  | Hartree multipole sum: apparent total charge =  -0.450895E-04
  Summing up the Hartree potential.
  Time summed over all CPUs for potential: real work        0.028 s, elapsed        0.028 s
  | RMS charge density error from multipole expansion :   0.123382E-02

  Integrating Hamiltonian matrix: batch-based integration.
  Time summed over all CPUs for integration: real work        0.141 s, elapsed        0.142 s

  Updating Kohn-Sham eigenvalues, eigenvectors, occupation numbers, and Fermi level.
  Solving generalized eigenproblem
  Solving real symmetric generalised eigenvalue problem by standard ScaLAPACK.
  Using Cholesky factor for transformation
  Using 1-stage real ELPA solver
  Determining occupation numbers for Kohn-Sham eigenstates.
  | Chemical potential (Fermi level) in eV                 : -.52639531E+01
  | Error in electron count due to remaining E_F inaccuracy: 0.00000000E+00
  | Maximum occupation number of highest empty state:  0.00E+00

  Highest occupied state (VBM) at     -6.23190006 eV
  | Occupation number:      2.00000000

  Lowest unoccupied state (CBM) at    -4.72153088 eV
  | Occupation number:      0.00000000

  Overall HOMO-LUMO gap:      1.51036918 eV.

  Total energy components:
  | Sum of eigenvalues            :      -24771.02480756 Ha     -674053.88049748 eV
  | XC energy correction          :        -735.75030874 Ha      -20020.78454715 eV
  | XC potential correction       :         962.36609020 Ha       26187.31371012 eV
  | Free-atom electrostatic energy:      -14826.62824481 Ha     -403453.08200815 eV
  | Hartree energy correction     :           1.45729277 Ha          39.65495380 eV
  | Entropy correction            :           0.00000000 Ha           0.00000000 eV
  | ---------------------------
  | Total energy                  :      -39369.57997815 Ha    -1071300.77838887 eV
  | Total energy, T -> 0          :      -39369.57997815 Ha    -1071300.77838887 eV  <-- do not rely on this value for anything but (periodic) metals
  | Electronic free energy        :      -39369.57997815 Ha    -1071300.77838887 eV

  Derived energy quantities:
  | Kinetic energy                :       44179.48577105 Ha     1202184.97432832 eV
  | Electrostatic energy          :      -82813.31544046 Ha    -2253464.96817003 eV
  | Energy correction for multipole
  | error in Hartree potential    :          -0.00043420 Ha          -0.01181514 eV
  | Sum of eigenvalues per atom                           :     -337026.94024874 eV
  | Total energy (T->0) per atom                          :     -535650.38919443 eV  <-- do not rely on this value for anything but (periodic) metals
  | Electronic free energy per atom                       :     -535650.38919443 eV

  Self-consistency convergence accuracy:
  | Change of charge density      :  0.5047E-01
  | Change of sum of eigenvalues  : -0.1529E+02 eV
  | Change of total energy        :  0.4764E-01 eV

  End self-consistency iteration #     2       :  max(cpu_time)    wall_clock(cpu1)
  | Time for this iteration                    :        0.200 s           0.200 s
  | Charge density update                      :        0.100 s           0.105 s
  | Density mixing                             :        0.010 s           0.001 s
  | Hartree multipole update                   :        0.010 s           0.003 s
  | Hartree multipole summation                :        0.010 s           0.015 s
  | Integration                                :        0.070 s           0.071 s
  | Solution of K.-S. eqns.                    :        0.010 s           0.004 s
  | Total energy evaluation                    :        0.000 s           0.000 s
------------------------------------------------------------

------------------------------------------------------------
          Begin self-consistency iteration #    3

  Date     :  20160131, Time     :  144019.003
------------------------------------------------------------
  Evaluating new KS density.
  Integration grid: deviation in total charge (<rho> - N_e) =   1.705303E-13
  Pulay mixing of updated and previous charge densities.

  Evaluating partitioned Hartree potential by multipole expansion.
  | Analytical far-field extrapolation by fixed multipoles:
  | Hartree multipole sum: apparent total charge =  -0.793784E-04
  Summing up the Hartree potential.
  Time summed over all CPUs for potential: real work        0.028 s, elapsed        0.028 s
  | RMS charge density error from multipole expansion :   0.189489E-02

  Integrating Hamiltonian matrix: batch-based integration.
  Time summed over all CPUs for integration: real work        0.140 s, elapsed        0.141 s

  Updating Kohn-Sham eigenvalues, eigenvectors, occupation numbers, and Fermi level.
  Solving generalized eigenproblem
  Solving real symmetric generalised eigenvalue problem by standard ScaLAPACK.
  Using Cholesky factor for transformation
  Using 1-stage real ELPA solver
  Determining occupation numbers for Kohn-Sham eigenstates.
  | Chemical potential (Fermi level) in eV                 : -.52372508E+01
  | Error in electron count due to remaining E_F inaccuracy: 0.00000000E+00
  | Maximum occupation number of highest empty state:  0.00E+00

  Highest occupied state (VBM) at     -6.18865378 eV
  | Occupation number:      2.00000000

  Lowest unoccupied state (CBM) at    -4.69339607 eV
  | Occupation number:      0.00000000

  Overall HOMO-LUMO gap:      1.49525771 eV.

  Total energy components:
  | Sum of eigenvalues            :      -24770.41375264 Ha     -674037.25284716 eV
  | XC energy correction          :        -735.76433352 Ha      -20021.16618089 eV
  | XC potential correction       :         962.38481490 Ha       26187.82323529 eV
  | Free-atom electrostatic energy:      -14826.62824481 Ha     -403453.08200815 eV
  | Hartree energy correction     :           0.84169727 Ha          22.90374815 eV
  | Entropy correction            :           0.00000000 Ha           0.00000000 eV
  | ---------------------------
  | Total energy                  :      -39369.57981880 Ha    -1071300.77405276 eV
  | Total energy, T -> 0          :      -39369.57981880 Ha    -1071300.77405276 eV  <-- do not rely on this value for anything but (periodic) metals
  | Electronic free energy        :      -39369.57981880 Ha    -1071300.77405276 eV

  Derived energy quantities:
  | Kinetic energy                :       44179.80201412 Ha     1202193.57974001 eV
  | Electrostatic energy          :      -82813.61749939 Ha    -2253473.18761189 eV
  | Energy correction for multipole
  | error in Hartree potential    :          -0.00085373 Ha          -0.02323122 eV
  | Sum of eigenvalues per atom                           :     -337018.62642358 eV
  | Total energy (T->0) per atom                          :     -535650.38702638 eV  <-- do not rely on this value for anything but (periodic) metals
  | Electronic free energy per atom                       :     -535650.38702638 eV

  Self-consistency convergence accuracy:
  | Change of charge density      :  0.2098E-01
  | Change of sum of eigenvalues  :  0.1663E+02 eV
  | Change of total energy        :  0.4336E-02 eV

  End self-consistency iteration #     3       :  max(cpu_time)    wall_clock(cpu1)
  | Time for this iteration                    :        0.200 s           0.199 s
  | Charge density update                      :        0.100 s           0.104 s
  | Density mixing                             :        0.010 s           0.002 s
  | Hartree multipole update                   :        0.010 s           0.003 s
  | Hartree multipole summation                :        0.010 s           0.015 s
  | Integration                                :        0.070 s           0.070 s
  | Solution of K.-S. eqns.                    :        0.010 s           0.005 s
  | Total energy evaluation                    :        0.000 s           0.000 s
------------------------------------------------------------

------------------------------------------------------------
          Begin self-consistency iteration #    4

  Date     :  20160131, Time     :  144019.202
------------------------------------------------------------
  Evaluating new KS density.
  Integration grid: deviation in total charge (<rho> - N_e) =   5.684342E-14
  Pulay mixing of updated and previous charge densities.

  Evaluating partitioned Hartree potential by multipole expansion.
  | Analytical far-field extrapolation by fixed multipoles:
  | Hartree multipole sum: apparent total charge =  -0.831074E-04
  Summing up the Hartree potential.
  Time summed over all CPUs for potential: real work        0.028 s, elapsed        0.028 s
  | RMS charge density error from multipole expansion :   0.196177E-02

  Integrating Hamiltonian matrix: batch-based integration.
  Time summed over all CPUs for integration: real work        0.139 s, elapsed        0.139 s

  Updating Kohn-Sham eigenvalues, eigenvectors, occupation numbers, and Fermi level.
  Solving generalized eigenproblem
  Solving real symmetric generalised eigenvalue problem by standard ScaLAPACK.
  Using Cholesky factor for transformation
  Using 1-stage real ELPA solver
  Determining occupation numbers for Kohn-Sham eigenstates.
  | Chemical potential (Fermi level) in eV                 : -.52336139E+01
  | Error in electron count due to remaining E_F inaccuracy: 0.00000000E+00
  | Maximum occupation number of highest empty state:  0.00E+00

  Highest occupied state (VBM) at     -6.18478347 eV
  | Occupation number:      2.00000000

  Lowest unoccupied state (CBM) at    -4.68722178 eV
  | Occupation number:      0.00000000

  Overall HOMO-LUMO gap:      1.49756169 eV.

  Total energy components:
  | Sum of eigenvalues            :      -24770.33257177 Ha     -674035.04380339 eV
  | XC energy correction          :        -735.76607891 Ha      -20021.21367529 eV
  | XC potential correction       :         962.38713969 Ha       26187.88649591 eV
  | Free-atom electrostatic energy:      -14826.62824481 Ha     -403453.08200815 eV
  | Hartree energy correction     :           0.75993802 Ha          20.67896565 eV
  | Entropy correction            :           0.00000000 Ha           0.00000000 eV
  | ---------------------------
  | Total energy                  :      -39369.57981779 Ha    -1071300.77402527 eV
  | Total energy, T -> 0          :      -39369.57981779 Ha    -1071300.77402527 eV  <-- do not rely on this value for anything but (periodic) metals
  | Electronic free energy        :      -39369.57981779 Ha    -1071300.77402527 eV

  Derived energy quantities:
  | Kinetic energy                :       44179.83190016 Ha     1202194.39298059 eV
  | Electrostatic energy          :      -82813.64563904 Ha    -2253473.95333057 eV
  | Energy correction for multipole
  | error in Hartree potential    :          -0.00092242 Ha          -0.02510025 eV
  | Sum of eigenvalues per atom                           :     -337017.52190169 eV
  | Total energy (T->0) per atom                          :     -535650.38701263 eV  <-- do not rely on this value for anything but (periodic) metals
  | Electronic free energy per atom                       :     -535650.38701263 eV

  Self-consistency convergence accuracy:
  | Change of charge density      :  0.4028E-02
  | Change of sum of eigenvalues  :  0.2209E+01 eV
  | Change of total energy        :  0.2750E-04 eV

  End self-consistency iteration #     4       :  max(cpu_time)    wall_clock(cpu1)
  | Time for this iteration                    :        0.200 s           0.199 s
  | Charge density update                      :        0.110 s           0.104 s
  | Density mixing                             :        0.000 s           0.003 s
  | Hartree multipole update                   :        0.000 s           0.002 s
  | Hartree multipole summation                :        0.020 s           0.015 s
  | Integration                                :        0.070 s           0.070 s
  | Solution of K.-S. eqns.                    :        0.000 s           0.004 s
  | Total energy evaluation                    :        0.000 s           0.000 s
------------------------------------------------------------

------------------------------------------------------------
          Begin self-consistency iteration #    5

  Date     :  20160131, Time     :  144019.401
------------------------------------------------------------
  Evaluating new KS density.
  Integration grid: deviation in total charge (<rho> - N_e) =   3.410605E-13
  Pulay mixing of updated and previous charge densities.

  Evaluating partitioned Hartree potential by multipole expansion.
  | Analytical far-field extrapolation by fixed multipoles:
  | Hartree multipole sum: apparent total charge =  -0.885280E-04
  Summing up the Hartree potential.
  Time summed over all CPUs for potential: real work        0.028 s, elapsed        0.028 s
  | RMS charge density error from multipole expansion :   0.207374E-02

  Integrating Hamiltonian matrix: batch-based integration.
  Time summed over all CPUs for integration: real work        0.140 s, elapsed        0.141 s

  Updating Kohn-Sham eigenvalues, eigenvectors, occupation numbers, and Fermi level.
  Solving generalized eigenproblem
  Solving real symmetric generalised eigenvalue problem by standard ScaLAPACK.
  Using Cholesky factor for transformation
  Using 1-stage real ELPA solver
  Determining occupation numbers for Kohn-Sham eigenstates.
  | Chemical potential (Fermi level) in eV                 : -.52284520E+01
  | Error in electron count due to remaining E_F inaccuracy: 0.00000000E+00
  | Maximum occupation number of highest empty state:  0.00E+00

  Highest occupied state (VBM) at     -6.17917095 eV
  | Occupation number:      2.00000000

  Lowest unoccupied state (CBM) at    -4.68213214 eV
  | Occupation number:      0.00000000

  Overall HOMO-LUMO gap:      1.49703881 eV.

  Total energy components:
  | Sum of eigenvalues            :      -24770.32310928 Ha     -674034.78631586 eV
  | XC energy correction          :        -735.76520958 Ha      -20021.19001954 eV
  | XC potential correction       :         962.38602212 Ha       26187.85608535 eV
  | Free-atom electrostatic energy:      -14826.62824481 Ha     -403453.08200815 eV
  | Hartree energy correction     :           0.75072739 Ha          20.42833159 eV
  | Entropy correction            :           0.00000000 Ha           0.00000000 eV
  | ---------------------------
  | Total energy                  :      -39369.57981416 Ha    -1071300.77392660 eV
  | Total energy, T -> 0          :      -39369.57981416 Ha    -1071300.77392660 eV  <-- do not rely on this value for anything but (periodic) metals
  | Electronic free energy        :      -39369.57981416 Ha    -1071300.77392660 eV

  Derived energy quantities:
  | Kinetic energy                :       44179.81971240 Ha     1202194.06133475 eV
  | Electrostatic energy          :      -82813.63431698 Ha    -2253473.64524182 eV
  | Energy correction for multipole
  | error in Hartree potential    :          -0.00105392 Ha          -0.02867865 eV
  | Sum of eigenvalues per atom                           :     -337017.39315793 eV
  | Total energy (T->0) per atom                          :     -535650.38696330 eV  <-- do not rely on this value for anything but (periodic) metals
  | Electronic free energy per atom                       :     -535650.38696330 eV

  Self-consistency convergence accuracy:
  | Change of charge density      :  0.2554E-02
  | Change of sum of eigenvalues  :  0.2575E+00 eV
  | Change of total energy        :  0.9866E-04 eV

  End self-consistency iteration #     5       :  max(cpu_time)    wall_clock(cpu1)
  | Time for this iteration                    :        0.200 s           0.201 s
  | Charge density update                      :        0.110 s           0.105 s
  | Density mixing                             :        0.000 s           0.004 s
  | Hartree multipole update                   :        0.010 s           0.002 s
  | Hartree multipole summation                :        0.020 s           0.015 s
  | Integration                                :        0.070 s           0.071 s
  | Solution of K.-S. eqns.                    :        0.010 s           0.004 s
  | Total energy evaluation                    :        0.000 s           0.000 s
------------------------------------------------------------

------------------------------------------------------------
          Begin self-consistency iteration #    6

  Date     :  20160131, Time     :  144019.603
------------------------------------------------------------
  Evaluating new KS density.
  Integration grid: deviation in total charge (<rho> - N_e) =   3.126388E-13
  Pulay mixing of updated and previous charge densities.

  Evaluating partitioned Hartree potential by multipole expansion.
  | Analytical far-field extrapolation by fixed multipoles:
  | Hartree multipole sum: apparent total charge =  -0.879657E-04
  Summing up the Hartree potential.
  Time summed over all CPUs for potential: real work        0.028 s, elapsed        0.028 s
  | RMS charge density error from multipole expansion :   0.206835E-02

  Integrating Hamiltonian matrix: batch-based integration.
  Time summed over all CPUs for integration: real work        0.143 s, elapsed        0.147 s

  Updating Kohn-Sham eigenvalues, eigenvectors, occupation numbers, and Fermi level.
  Solving generalized eigenproblem
  Solving real symmetric generalised eigenvalue problem by standard ScaLAPACK.
  Using Cholesky factor for transformation
  Using 1-stage real ELPA solver
  Determining occupation numbers for Kohn-Sham eigenstates.
  | Chemical potential (Fermi level) in eV                 : -.52300278E+01
  | Error in electron count due to remaining E_F inaccuracy: 0.00000000E+00
  | Maximum occupation number of highest empty state:  0.00E+00

  Highest occupied state (VBM) at     -6.18160532 eV
  | Occupation number:      2.00000000

  Lowest unoccupied state (CBM) at    -4.68384384 eV
  | Occupation number:      0.00000000

  Overall HOMO-LUMO gap:      1.49776148 eV.

  Total energy components:
  | Sum of eigenvalues            :      -24770.35995564 Ha     -674035.78895638 eV
  | XC energy correction          :        -735.76450034 Ha      -20021.17072031 eV
  | XC potential correction       :         962.38508035 Ha       26187.83045837 eV
  | Free-atom electrostatic energy:      -14826.62824481 Ha     -403453.08200815 eV
  | Hartree energy correction     :           0.78780629 Ha          21.43729975 eV
  | Entropy correction            :           0.00000000 Ha           0.00000000 eV
  | ---------------------------
  | Total energy                  :      -39369.57981417 Ha    -1071300.77392671 eV
  | Total energy, T -> 0          :      -39369.57981417 Ha    -1071300.77392671 eV  <-- do not rely on this value for anything but (periodic) metals
  | Electronic free energy        :      -39369.57981417 Ha    -1071300.77392671 eV

  Derived energy quantities:
  | Kinetic energy                :       44179.80958813 Ha     1202193.78583949 eV
  | Electrostatic energy          :      -82813.62490196 Ha    -2253473.38904589 eV
  | Energy correction for multipole
  | error in Hartree potential    :          -0.00104974 Ha          -0.02856495 eV
  | Sum of eigenvalues per atom                           :     -337017.89447819 eV
  | Total energy (T->0) per atom                          :     -535650.38696335 eV  <-- do not rely on this value for anything but (periodic) metals
  | Electronic free energy per atom                       :     -535650.38696335 eV

  Self-consistency convergence accuracy:
  | Change of charge density      :  0.3797E-03
  | Change of sum of eigenvalues  : -0.1003E+01 eV
  | Change of total energy        : -0.1043E-06 eV

  End self-consistency iteration #     6       :  max(cpu_time)    wall_clock(cpu1)
  | Time for this iteration                    :        0.210 s           0.204 s
  | Charge density update                      :        0.110 s           0.104 s
  | Density mixing                             :        0.010 s           0.004 s
  | Hartree multipole update                   :        0.010 s           0.003 s
  | Hartree multipole summation                :        0.010 s           0.014 s
  | Integration                                :        0.080 s           0.074 s
  | Solution of K.-S. eqns.                    :        0.010 s           0.004 s
  | Total energy evaluation                    :        0.000 s           0.000 s
------------------------------------------------------------

------------------------------------------------------------
          Begin self-consistency iteration #    7

  Date     :  20160131, Time     :  144019.807
------------------------------------------------------------
  Evaluating new KS density.
  Integration grid: deviation in total charge (<rho> - N_e) =   8.526513E-14
  Pulay mixing of updated and previous charge densities.

  Evaluating partitioned Hartree potential by multipole expansion.
  | Analytical far-field extrapolation by fixed multipoles:
  | Hartree multipole sum: apparent total charge =  -0.878722E-04
  Summing up the Hartree potential.
  Time summed over all CPUs for potential: real work        0.028 s, elapsed        0.029 s
  | RMS charge density error from multipole expansion :   0.206884E-02

  Integrating Hamiltonian matrix: batch-based integration.
  Time summed over all CPUs for integration: real work        0.142 s, elapsed        0.144 s

  Updating Kohn-Sham eigenvalues, eigenvectors, occupation numbers, and Fermi level.
  Solving generalized eigenproblem
  Solving real symmetric generalised eigenvalue problem by standard ScaLAPACK.
  Using Cholesky factor for transformation
  Using 1-stage real ELPA solver
  Determining occupation numbers for Kohn-Sham eigenstates.
  | Chemical potential (Fermi level) in eV                 : -.52302360E+01
  | Error in electron count due to remaining E_F inaccuracy: 0.00000000E+00
  | Maximum occupation number of highest empty state:  0.00E+00

  Highest occupied state (VBM) at     -6.18195573 eV
  | Occupation number:      2.00000000

  Lowest unoccupied state (CBM) at    -4.68413539 eV
  | Occupation number:      0.00000000

  Overall HOMO-LUMO gap:      1.49782033 eV.

  Total energy components:
  | Sum of eigenvalues            :      -24770.36491245 Ha     -674035.92383795 eV
  | XC energy correction          :        -735.76439577 Ha      -20021.16787462 eV
  | XC potential correction       :         962.38494129 Ha       26187.82667449 eV
  | Free-atom electrostatic energy:      -14826.62824481 Ha     -403453.08200815 eV
  | Hartree energy correction     :           0.79279745 Ha          21.57311636 eV
  | Entropy correction            :           0.00000000 Ha           0.00000000 eV
  | ---------------------------
  | Total energy                  :      -39369.57981428 Ha    -1071300.77392987 eV
  | Total energy, T -> 0          :      -39369.57981428 Ha    -1071300.77392987 eV  <-- do not rely on this value for anything but (periodic) metals
  | Electronic free energy        :      -39369.57981428 Ha    -1071300.77392987 eV

  Derived energy quantities:
  | Kinetic energy                :       44179.80810245 Ha     1202193.74541204 eV
  | Electrostatic energy          :      -82813.62352097 Ha    -2253473.35146729 eV
  | Energy correction for multipole
  | error in Hartree potential    :          -0.00105191 Ha          -0.02862390 eV
  | Sum of eigenvalues per atom                           :     -337017.96191897 eV
  | Total energy (T->0) per atom                          :     -535650.38696494 eV  <-- do not rely on this value for anything but (periodic) metals
  | Electronic free energy per atom                       :     -535650.38696494 eV

  Self-consistency convergence accuracy:
  | Change of charge density      :  0.7500E-04
  | Change of sum of eigenvalues  : -0.1349E+00 eV
  | Change of total energy        : -0.3165E-05 eV

  End self-consistency iteration #     7       :  max(cpu_time)    wall_clock(cpu1)
  | Time for this iteration                    :        0.210 s           0.203 s
  | Charge density update                      :        0.110 s           0.104 s
  | Density mixing                             :        0.010 s           0.005 s
  | Hartree multipole update                   :        0.000 s           0.003 s
  | Hartree multipole summation                :        0.020 s           0.015 s
  | Integration                                :        0.070 s           0.072 s
  | Solution of K.-S. eqns.                    :        0.000 s           0.004 s
  | Total energy evaluation                    :        0.000 s           0.000 s
------------------------------------------------------------

------------------------------------------------------------
          Begin self-consistency iteration #    8

  Date     :  20160131, Time     :  144020.011
------------------------------------------------------------
  Evaluating new KS density.
  Integration grid: deviation in total charge (<rho> - N_e) =   0.000000E+00
  Pulay mixing of updated and previous charge densities.

  Evaluating partitioned Hartree potential by multipole expansion.
  | Analytical far-field extrapolation by fixed multipoles:
  | Hartree multipole sum: apparent total charge =  -0.878357E-04
  Summing up the Hartree potential.
  Time summed over all CPUs for potential: real work        0.028 s, elapsed        0.028 s
  | RMS charge density error from multipole expansion :   0.206848E-02

  Integrating Hamiltonian matrix: batch-based integration.
  Time summed over all CPUs for integration: real work        0.139 s, elapsed        0.140 s

  Updating Kohn-Sham eigenvalues, eigenvectors, occupation numbers, and Fermi level.
  Solving generalized eigenproblem
  Solving real symmetric generalised eigenvalue problem by standard ScaLAPACK.
  Using Cholesky factor for transformation
  Using 1-stage real ELPA solver
  Determining occupation numbers for Kohn-Sham eigenstates.
  | Chemical potential (Fermi level) in eV                 : -.52302245E+01
  | Error in electron count due to remaining E_F inaccuracy: 0.00000000E+00
  | Maximum occupation number of highest empty state:  0.00E+00

  Highest occupied state (VBM) at     -6.18191880 eV
  | Occupation number:      2.00000000

  Lowest unoccupied state (CBM) at    -4.68411958 eV
  | Occupation number:      0.00000000

  Overall HOMO-LUMO gap:      1.49779922 eV.

  Total energy components:
  | Sum of eigenvalues            :      -24770.36244614 Ha     -674035.85672639 eV
  | XC energy correction          :        -735.76446396 Ha      -20021.16973035 eV
  | XC potential correction       :         962.38503114 Ha       26187.82911931 eV
  | Free-atom electrostatic energy:      -14826.62824481 Ha     -403453.08200815 eV
  | Hartree energy correction     :           0.79030949 Ha          21.50541545 eV
  | Entropy correction            :           0.00000000 Ha           0.00000000 eV
  | ---------------------------
  | Total energy                  :      -39369.57981429 Ha    -1071300.77393013 eV
  | Total energy, T -> 0          :      -39369.57981429 Ha    -1071300.77393013 eV  <-- do not rely on this value for anything but (periodic) metals
  | Electronic free energy        :      -39369.57981429 Ha    -1071300.77393013 eV

  Derived energy quantities:
  | Kinetic energy                :       44179.80919814 Ha     1202193.77522724 eV
  | Electrostatic energy          :      -82813.62454847 Ha    -2253473.37942702 eV
  | Energy correction for multipole
  | error in Hartree potential    :          -0.00105169 Ha          -0.02861807 eV
  | Sum of eigenvalues per atom                           :     -337017.92836319 eV
  | Total energy (T->0) per atom                          :     -535650.38696506 eV  <-- do not rely on this value for anything but (periodic) metals
  | Electronic free energy per atom                       :     -535650.38696506 eV

  Self-consistency convergence accuracy:
  | Change of charge density      :  0.3930E-04
  | Change of sum of eigenvalues  :  0.6711E-01 eV
  | Change of total energy        : -0.2546E-06 eV

  End self-consistency iteration #     8       :  max(cpu_time)    wall_clock(cpu1)
  | Time for this iteration                    :        0.210 s           0.203 s
  | Charge density update                      :        0.110 s           0.105 s
  | Density mixing                             :        0.010 s           0.006 s
  | Hartree multipole update                   :        0.010 s           0.003 s
  | Hartree multipole summation                :        0.010 s           0.014 s
  | Integration                                :        0.070 s           0.070 s
  | Solution of K.-S. eqns.                    :        0.010 s           0.005 s
  | Total energy evaluation                    :        0.000 s           0.000 s
------------------------------------------------------------

------------------------------------------------------------
          Begin self-consistency iteration #    9

  Date     :  20160131, Time     :  144020.214
------------------------------------------------------------
  Evaluating new KS density.
  Integration grid: deviation in total charge (<rho> - N_e) =  -1.705303E-13
  Pulay mixing of updated and previous charge densities.

  Evaluating partitioned Hartree potential by multipole expansion.
  | Analytical far-field extrapolation by fixed multipoles:
  | Hartree multipole sum: apparent total charge =  -0.878335E-04
  Summing up the Hartree potential.
  Time summed over all CPUs for potential: real work        0.028 s, elapsed        0.028 s
  | RMS charge density error from multipole expansion :   0.206863E-02

  Integrating Hamiltonian matrix: batch-based integration.
  Time summed over all CPUs for integration: real work        0.141 s, elapsed        0.143 s

  Updating Kohn-Sham eigenvalues, eigenvectors, occupation numbers, and Fermi level.
  Solving generalized eigenproblem
  Solving real symmetric generalised eigenvalue problem by standard ScaLAPACK.
  Using Cholesky factor for transformation
  Using 1-stage real ELPA solver
  Determining occupation numbers for Kohn-Sham eigenstates.
  | Chemical potential (Fermi level) in eV                 : -.52302278E+01
  | Error in electron count due to remaining E_F inaccuracy: 0.00000000E+00
  | Maximum occupation number of highest empty state:  0.00E+00

  Highest occupied state (VBM) at     -6.18192286 eV
  | Occupation number:      2.00000000

  Lowest unoccupied state (CBM) at    -4.68412113 eV
  | Occupation number:      0.00000000

  Overall HOMO-LUMO gap:      1.49780173 eV.

  Total energy components:
  | Sum of eigenvalues            :      -24770.36255681 Ha     -674035.85973764 eV
  | XC energy correction          :        -735.76446009 Ha      -20021.16962486 eV
  | XC potential correction       :         962.38502599 Ha       26187.82897923 eV
  | Free-atom electrostatic energy:      -14826.62824481 Ha     -403453.08200815 eV
  | Hartree energy correction     :           0.79042141 Ha          21.50846101 eV
  | Entropy correction            :           0.00000000 Ha           0.00000000 eV
  | ---------------------------
  | Total energy                  :      -39369.57981430 Ha    -1071300.77393041 eV
  | Total energy, T -> 0          :      -39369.57981430 Ha    -1071300.77393041 eV  <-- do not rely on this value for anything but (periodic) metals
  | Electronic free energy        :      -39369.57981430 Ha    -1071300.77393041 eV

  Derived energy quantities:
  | Kinetic energy                :       44179.80911098 Ha     1202193.77285536 eV
  | Electrostatic energy          :      -82813.62446519 Ha    -2253473.37716091 eV
  | Energy correction for multipole
  | error in Hartree potential    :          -0.00105201 Ha          -0.02862674 eV
  | Sum of eigenvalues per atom                           :     -337017.92986882 eV
  | Total energy (T->0) per atom                          :     -535650.38696520 eV  <-- do not rely on this value for anything but (periodic) metals
  | Electronic free energy per atom                       :     -535650.38696520 eV

  Self-consistency convergence accuracy:
  | Change of charge density      :  0.4649E-05
  | Change of sum of eigenvalues  : -0.3011E-02 eV
  | Change of total energy        : -0.2809E-06 eV

  End self-consistency iteration #     9       :  max(cpu_time)    wall_clock(cpu1)
  | Time for this iteration                    :        0.200 s           0.204 s
  | Charge density update                      :        0.100 s           0.104 s
  | Density mixing                             :        0.010 s           0.006 s
  | Hartree multipole update                   :        0.000 s           0.003 s
  | Hartree multipole summation                :        0.010 s           0.015 s
  | Integration                                :        0.080 s           0.072 s
  | Solution of K.-S. eqns.                    :        0.010 s           0.004 s
  | Total energy evaluation                    :        0.000 s           0.000 s
------------------------------------------------------------

------------------------------------------------------------
          Begin self-consistency iteration #   10

  Date     :  20160131, Time     :  144020.418
------------------------------------------------------------
  Evaluating new KS density.
  Integration grid: deviation in total charge (<rho> - N_e) =  -1.421085E-13
  Pulay mixing of updated and previous charge densities.

  Evaluating partitioned Hartree potential by multipole expansion.
  | Analytical far-field extrapolation by fixed multipoles:
  | Hartree multipole sum: apparent total charge =  -0.878332E-04
  Summing up the Hartree potential.
  Time summed over all CPUs for potential: real work        0.028 s, elapsed        0.028 s
  | RMS charge density error from multipole expansion :   0.206862E-02

  Integrating Hamiltonian matrix: batch-based integration.
  Time summed over all CPUs for integration: real work        0.139 s, elapsed        0.140 s

  Updating Kohn-Sham eigenvalues, eigenvectors, occupation numbers, and Fermi level.
  Solving generalized eigenproblem
[...]
------------------------------------------------------------
  Evaluating new KS density.
  Evaluating the Pulay forces using the density matrix.
  Evaluating density matrix
  Evaluating density matrix
  Integration grid: deviation in total charge (<rho> - N_e) =   1.136868E-13
  Pulay mixing of updated and previous charge densities.

  Evaluating partitioned Hartree potential by multipole expansion.
  | Analytical far-field extrapolation by fixed multipoles:
  | Hartree multipole sum: apparent total charge =  -0.124655E-03
  Summing up the Hartree potential.
  Time summed over all CPUs for potential: real work        0.077 s, elapsed        0.077 s
  | RMS charge density error from multipole expansion :   0.365869E-02

  Integrating Hamiltonian matrix: batch-based integration.
  Time summed over all CPUs for integration: real work        0.140 s, elapsed        0.140 s

  Updating Kohn-Sham eigenvalues, eigenvectors, occupation numbers, and Fermi level.
  Solving generalized eigenproblem
  Solving real symmetric generalised eigenvalue problem by standard ScaLAPACK.
  Using Cholesky factor for transformation
  Using 1-stage real ELPA solver
  Determining occupation numbers for Kohn-Sham eigenstates.
  | Chemical potential (Fermi level) in eV                 : -.54608444E+01
  | Error in electron count due to remaining E_F inaccuracy: 0.00000000E+00
  | Maximum occupation number of highest empty state:  0.00E+00

  Highest occupied state (VBM) at     -6.22761164 eV
  | Occupation number:      2.00000000

  Lowest unoccupied state (CBM) at    -4.21527991 eV
  | Occupation number:      0.00000000

  Overall HOMO-LUMO gap:      2.01233172 eV.

  Total energy components:
  | Sum of eigenvalues            :      -24771.03752353 Ha     -674054.22651668 eV
  | XC energy correction          :        -735.80288619 Ha      -20022.21525226 eV
  | XC potential correction       :         962.44056509 Ha       26189.34027500 eV
  | Free-atom electrostatic energy:      -14826.28183705 Ha     -403443.65577326 eV
  | Hartree energy correction     :           1.07942119 Ha          29.37254496 eV
  | Entropy correction            :           0.00000000 Ha           0.00000000 eV
  | ---------------------------
  | Total energy                  :      -39369.60226049 Ha    -1071301.38472224 eV
  | Total energy, T -> 0          :      -39369.60226049 Ha    -1071301.38472224 eV  <-- do not rely on this value for anything but (periodic) metals
  | Electronic free energy        :      -39369.60226049 Ha    -1071301.38472224 eV

  Derived energy quantities:
  | Kinetic energy                :       44180.03803973 Ha     1202200.00232363 eV
  | Electrostatic energy          :      -82813.83741403 Ha    -2253479.17179361 eV
  | Energy correction for multipole
  | error in Hartree potential    :          -0.00263306 Ha          -0.07164919 eV
  | Sum of eigenvalues per atom                           :     -337027.11325834 eV
  | Total energy (T->0) per atom                          :     -535650.69236112 eV  <-- do not rely on this value for anything but (periodic) metals
  | Electronic free energy per atom                       :     -535650.69236112 eV

  atomic forces [eV/Ang]:
  -----------------------
  atom #    1
   Hellmann-Feynman              : -0.104747E-08  0.132433E-08  0.731449E+02
   Ionic forces                  :  0.000000E+00  0.000000E+00  0.000000E+00
   Multipole                     : -0.402913E-09 -0.268865E-10  0.621501E-01
   Pulay + GGA                   : -0.212514E-06 -0.448974E-06 -0.732117E+02
   ----------------------------------------------------------------
   Total forces(   1)            : -0.213965E-06 -0.447676E-06 -0.473099E-02
  atom #    2
   Hellmann-Feynman              : -0.645238E-09 -0.264687E-09 -0.731449E+02
   Ionic forces                  :  0.000000E+00  0.000000E+00  0.000000E+00
   Multipole                     :  0.104150E-09  0.359120E-09 -0.621501E-01
   Pulay + GGA                   :  0.829105E-06 -0.514823E-06  0.732117E+02
   ----------------------------------------------------------------
   Total forces(   2)            :  0.828564E-06 -0.514729E-06  0.473106E-02


  Self-consistency convergence accuracy:
  | Change of charge density      :  0.1645E-08
  | Change of sum of eigenvalues  : -0.1002E-05 eV
  | Change of total energy        :  0.0000E+00 eV
  | Change of forces              :  0.4374E-05 eV/A

  Writing Kohn-Sham eigenvalues.

  State    Occupation    Eigenvalue [Ha]    Eigenvalue [eV]
      1       2.00000       -3256.421024       -88611.72458
      2       2.00000       -3256.421024       -88611.72458
      3       2.00000        -533.663347       -14521.71853
      4       2.00000        -533.663347       -14521.71853
      5       2.00000        -460.395163       -12527.98980
      6       2.00000        -460.395163       -12527.98980
      7       2.00000        -460.395163       -12527.98980
      8       2.00000        -460.395163       -12527.98980
      9       2.00000        -460.395005       -12527.98551
     10       2.00000        -460.395005       -12527.98551
     11       2.00000        -124.242208        -3380.80250
     12       2.00000        -124.242208        -3380.80250
     13       2.00000        -103.460109        -2815.29280
     14       2.00000        -103.460109        -2815.29280
     15       2.00000        -103.460109        -2815.29280
     16       2.00000        -103.460109        -2815.29280
     17       2.00000        -103.458626        -2815.25246
     18       2.00000        -103.458626        -2815.25246
     19       2.00000         -81.376282        -2214.36130
     20       2.00000         -81.376282        -2214.36130
     21       2.00000         -81.376282        -2214.36130
     22       2.00000         -81.376282        -2214.36130
     23       2.00000         -81.375236        -2214.33283
     24       2.00000         -81.375236        -2214.33283
     25       2.00000         -81.375236        -2214.33283
     26       2.00000         -81.375236        -2214.33283
     27       2.00000         -81.375046        -2214.32767
     28       2.00000         -81.375046        -2214.32767
     29       2.00000         -26.853889         -730.73149
     30       2.00000         -26.853889         -730.73149
     31       2.00000         -20.086017         -546.56834
     32       2.00000         -20.086017         -546.56834
     33       2.00000         -20.086017         -546.56834
     34       2.00000         -20.086017         -546.56834
     35       2.00000         -20.085849         -546.56376
     36       2.00000         -20.085849         -546.56376
     37       2.00000         -11.985773         -326.14948
     38       2.00000         -11.985773         -326.14947
     39       2.00000         -11.985246         -326.13514
     40       2.00000         -11.985246         -326.13514
     41       2.00000         -11.985246         -326.13514
     42       2.00000         -11.985246         -326.13514
     43       2.00000         -11.985187         -326.13352
     44       2.00000         -11.985187         -326.13352
     45       2.00000         -11.985187         -326.13352
     46       2.00000         -11.985187         -326.13352
     47       2.00000          -3.983356         -108.39262
     48       2.00000          -3.982822         -108.37809
     49       2.00000          -2.996386          -81.53580
     50       2.00000          -2.996298          -81.53341
     51       2.00000          -2.996036          -81.52628
     52       2.00000          -2.996036          -81.52628
     53       2.00000          -2.995999          -81.52529
     54       2.00000          -2.995999          -81.52529
     55       2.00000          -2.995340          -81.50734
     56       2.00000          -2.995339          -81.50733
     57       2.00000          -2.995333          -81.50717
     58       2.00000          -2.995333          -81.50716
     59       2.00000          -2.995073          -81.50009
     60       2.00000          -2.995073          -81.50009
     61       2.00000          -2.995073          -81.50008
     62       2.00000          -2.995073          -81.50008
     63       2.00000          -2.211426          -60.17595
     64       2.00000          -2.202068          -59.92132
     65       2.00000          -2.193520          -59.68872
     66       2.00000          -2.193520          -59.68872
     67       2.00000          -2.192623          -59.66431
     68       2.00000          -2.192623          -59.66431
     69       2.00000          -0.330465           -8.99242
     70       2.00000          -0.287195           -7.81497
     71       2.00000          -0.287195           -7.81497
     72       2.00000          -0.251659           -6.84800
     73       2.00000          -0.251659           -6.84799
     74       2.00000          -0.239965           -6.52977
     75       2.00000          -0.239965           -6.52977
     76       2.00000          -0.234100           -6.37019
     77       2.00000          -0.231429           -6.29752
     78       2.00000          -0.231429           -6.29752
     79       2.00000          -0.228861           -6.22761
     80       0.00000          -0.154909           -4.21528
     81       0.00000          -0.001878           -0.05111
     82       0.00000          -0.000690           -0.01879
     83       0.00000          -0.000690           -0.01879
     84       0.00000           0.083287            2.26634
     85       0.00000           0.083287            2.26634
     86       0.00000           0.192475            5.23752
     87       0.00000           0.216706            5.89687
     88       0.00000           0.226855            6.17303
     89       0.00000           0.226883            6.17379
     90       0.00000           0.279568            7.60742
     91       0.00000           0.279568            7.60742
     92       0.00000           0.295022            8.02794
     93       0.00000           0.308349            8.39060
     94       0.00000           0.308352            8.39067
     95       0.00000           0.387373           10.54096
     96       0.00000           0.413672           11.25658
     97       0.00000           0.413672           11.25658

  Highest occupied state (VBM) at     -6.22761164 eV
  | Occupation number:      2.00000000

  Lowest unoccupied state (CBM) at    -4.21527991 eV
  | Occupation number:      0.00000000

  Overall HOMO-LUMO gap:      2.01233172 eV.

  Self-consistency cycle converged.

  End self-consistency iteration #    10       :  max(cpu_time)    wall_clock(cpu1)
  | Time for this iteration                    :        1.040 s           1.039 s
  | Charge density & force component update    :        0.910 s           0.913 s
  | Density mixing                             :        0.010 s           0.006 s
  | Hartree multipole update                   :        0.000 s           0.003 s
  | Hartree multipole summation                :        0.040 s           0.039 s
  | Integration                                :        0.070 s           0.070 s
  | Solution of K.-S. eqns.                    :        0.010 s           0.006 s
  | Total energy evaluation                    :        0.000 s           0.001 s
------------------------------------------------------------
  Removing unitary transformations (pure translations, rotations) from forces on atoms.
  Atomic forces before filtering:
  | Net force on center of mass :   0.614599E-06 -0.962405E-06  0.681069E-07 eV/A
  | Net torque on center of mass:   0.846856E-07  0.131669E-05  0.630975E-77 eV
  Atomic forces after filtering:
  | Net force on center of mass :   0.170141E-21 -0.170141E-21  0.000000E+00 eV/A
  | Net torque on center of mass:   0.000000E+00 -0.214884E-21 -0.203832E-93 eV

  Energy and forces in a compact form:
  | Total energy uncorrected      :         -0.107130138472224E+07 eV
  | Total energy corrected        :         -0.107130138472224E+07 eV  <-- do not rely on this value for anything but (periodic) metals
  | Electronic free energy        :         -0.107130138472224E+07 eV
  Total atomic forces (unitary forces cleaned) [eV/Ang]:
  |   1          0.170141338468646E-21         -0.850706692343231E-22         -0.473102240547512E-02
  |   2          0.000000000000000E+00         -0.850706692343231E-22          0.473102240547512E-02

  ------------------------------------ 
  Start decomposition of the XC Energy 
  ------------------------------------ 
  Hartree-Fock part   :          0.000000000 Ha              0.000000000 eV
  ------------------------------------ 
  X Energy            :       -726.160928042 Ha         -19759.844221828 eV
  C Energy GGA        :         -9.641958146 Ha           -262.371030436 eV
  Total XC Energy     :       -735.802886188 Ha         -20022.215252264 eV
  LDA X and C from self-consistent density 
  X Energy LDA        :       -696.946537894 Ha         -18964.880218585 eV
  C Energy LDA        :        -16.540190171 Ha           -450.081474452 eV
  ------------------------------------ 
  End decomposition of the XC Energy 
  ------------------------------------ 
  Relaxation / MD: End force evaluation.       :  max(cpu_time)    wall_clock(cpu1)
  | Time for this force evaluation             :        2.940 s           2.980 s

------------------------------------------------------------
  Geometry optimization: Attempting to predict improved coordinates.

  Removing unitary transformations (pure translations, rotations) from forces on atoms.
  Atomic forces before filtering:
  | Net force on center of mass :   0.170141E-21 -0.170141E-21  0.000000E+00 eV/A
  | Net torque on center of mass:   0.000000E+00 -0.214884E-21 -0.203832E-93 eV
  Atomic forces after filtering:
  | Net force on center of mass :   0.472237E-37 -0.283342E-37  0.000000E+00 eV/A
  | Net torque on center of mass:  -0.119285E-37  0.357854E-37 -0.678896-108 eV
  Net remaining forces (excluding translations, rotations) in present geometry:
  Maximum force component is  0.473102E-02 eV/A.
  Present geometry is converged.

------------------------------------------------------------
  Final atomic structure:
                         x [A]             y [A]             z [A]
            atom         0.00000000        0.00000000        0.23702575  Au
            atom         0.00000000        0.00000000        2.76297425  Au
------------------------------------------------------------

------------------------------------------------------------------------------
  Final output of selected total energy values:

  The following output summarizes some interesting total energy values
  at the end of a run (AFTER all relaxation, molecular dynamics, etc.).

  | Total energy of the DFT / Hartree-Fock s.c.f. calculation      :       -1071301.384722239 eV
  | Final zero-broadening corrected energy (caution - metals only) :       -1071301.384722239 eV
  | For reference only, the value of 1 Hartree used in FHI-aims is :             27.211384500 eV

  Before relying on these values, please be sure to understand exactly which
  total energy value is referred to by a given number. Different objects may
  all carry the same name 'total energy'. Definitions:

  Total energy of the DFT / Hartree-Fock s.c.f. calculation:
  | Note that this energy does not include ANY quantities calculated after the
  | s.c.f. cycle, in particular not ANY RPA, MP2, etc. many-body perturbation terms.

  Final zero-broadening corrected energy:
  | For metallic systems only, a broadening of the occupation numbers at the Fermi
  | level can be extrapolated back to zero broadening by an electron-gas inspired
  | formula. For all systems that are not real metals, this value can be
  | meaningless and should be avoided.

------------------------------------------------------------------------------
  Methods described in the following list of references were used in this FHI-aims run.
  If you publish the results, please make sure to cite these reference if they apply.
  FHI-aims is an academic code, and for our developers (often, Ph.D. students
  and postdocs), scientific credit in the community is essential.
  Thank you for helping us!

  For any use of FHI-aims, please cite:

    Volker Blum, Ralf Gehrke, Felix Hanke, Paula Havu, Ville Havu,
    Xinguo Ren, Karsten Reuter, and Matthias Scheffler
    'Ab initio molecular simulations with numeric atom-centered orbitals'
    Computer Physics Communications 180, 2175-2196 (2009)
    http://dx.doi.org/10.1016/j.cpc.2009.06.022


  The scalable eigensolver library ELPA was used in your run.
  ELPA is essential especially for large systems on hundreds or thousands of CPUs.
  For ELPA, please cite:

    Andreas Marek, Volker Blum, Rainer Johanni, Ville Havu, Bruno Lang,
    Thomas Auckenthaler, Alexander Heinecke, Hans-Joachim Bungartz, and Hermann Lederer,
    'The ELPA Library - Scalable Parallel Eigenvalue Solutions
    for Electronic Structure Theory and Computational Science'
    The Journal of Physics: Condensed Matter 26, 213201 (2014).
    http://dx.doi.org/10.1088/0953-8984/26/21/213201


  For the real-space grid partitioning and parallelization used in this calculation, please cite:

    Ville Havu, Volker Blum, Paula Havu, and Matthias Scheffler,
    'Efficient O(N) integration for all-electron electronic structure calculation'
    'using numerically tabulated basis functions'
    Journal of Computational Physics 228, 8367-8379 (2009).
    http://dx.doi.org/10.1016/j.jcp.2009.08.008

  Of course, there are many other important community references, e.g., those cited in the
  above references. Our list is limited to references that describe implementations in the
  FHI-aims code. The reason is purely practical (length of this list) - please credit others as well.

 * A warning was issued further up regarding the accuracy of onsite integrals.
   An integral with a negative eigenvalue was among the flagged integrals.
   In most standard situations, this warning is probably harmless.
   If needed, this can be verified by adjusting the radial_multiplier flag.

------------------------------------------------------------
          Leaving FHI-aims.
          Date     :  20160131, Time     :  144044.547

          Computational steps:
          | Number of self-consistency cycles          :           90
          | Number of relaxation steps                 :            7

          Detailed time accounting                     :  max(cpu_time)    wall_clock(cpu1)
          | Total time                                 :       26.540 s          26.710 s
          | Preparation time                           :        0.540 s           0.538 s
          | Grid partitioning                          :        0.160 s           0.151 s
          | Preloading free-atom quantities on grid    :        0.070 s           0.093 s
          | Free-atom superposition energy             :        0.090 s           0.092 s
          | Total time for integrations                :        6.860 s           6.764 s
          | Total time for solution of K.-S. equations :        0.660 s           0.423 s
          | Total time for EV reorthonormalization     :        0.010 s           0.030 s
          | Total time for density & force components  :       16.070 s          15.995 s
          | Total time for mixing                      :        0.380 s           0.337 s
          | Total time for Hartree multipole update    :        0.600 s           0.249 s
          | Total time for Hartree multipole sum       :        1.820 s           1.725 s
          | Total time for total energy evaluation     :        0.030 s           0.039 s
          | Total time for scaled ZORA corrections     :        0.000 s           0.000 s

          Have a nice day.
------------------------------------------------------------
