  MPI-parallelism will be employed.
------------------------------------------------------------
          Invoking FHI-aims ...
          Version 081213
          Git rev. (modified): ea1ccc2 Simplified regression tests to avoid sendi[...]
          Compiled on 2013/08/13 at 17:23:57 on host hp83-ekl-12.ictp.it.

          When using FHI-aims, please cite the following reference:

          Volker Blum, Ralf Gehrke, Felix Hanke, Paula Havu,
          Ville Havu, Xinguo Ren, Karsten Reuter, and Matthias Scheffler,
          'Ab Initio Molecular Simulations with Numeric Atom-Centered Orbitals: FHI-aims',
          Computer Physics Communications 180, 2175-2196 (2009)

          For any questions about FHI-aims, please visit the aimsclub website
          with its forums and wiki. Contributions to both the forums and the
          wiki are warmly encouraged - they are for you, and everyone is welcome there.

------------------------------------------------------------

  Date     :  20130814, Time     :  135733.305
  Time zero on CPU 1             :   0.160000000000000E-01  s.
  Internal wall clock time zero  :           145720653.305  s.

  Using        4 parallel tasks.
  Task        0 on host hp83-ekl-12.ictp.it reporting.
  Task        1 on host hp83-ekl-12.ictp.it reporting.
  Task        2 on host hp83-ekl-12.ictp.it reporting.
  Task        3 on host hp83-ekl-12.ictp.it reporting.

  Performing system and environment tests:
  | Environment variable OMP_NUM_THREADS correctly set to 1.
  | Checking for scalapack...
  | Testing pdtran()...
  | All pdtran() tests passed.

  Obtaining array dimensions for all initial allocations:
  
  -----------------------------------------------------------------------
  Parsing control.in (first pass over file, find array dimensions only).
  The contents of control.in will be repeated verbatim below
  unless switched off by setting 'verbatim_writeout .false.' .
  in the first line of control.in .
  -----------------------------------------------------------------------
  
  #########################################################################################
  #
  #  Volker Blum, FHI 2009 : Test run input file control.in for Au dimer
  #
  #########################################################################################
  #
  #  Physical model
  #
    xc                 pw-lda
    spin               none
    relativistic       zora scalar 1e-12
    charge             0.
  #
  #  SCF convergence
  #
    occupation_type    gaussian 0.01
    mixer              pulay
      n_max_pulay        10
      charge_mix_param   0.5
    sc_accuracy_rho    1E-5
    sc_accuracy_eev    1E-3
    sc_accuracy_etot   1E-6
    sc_iter_limit      100
  
  ################################################################################
  #
  #  FHI-aims code project
  # Volker Blum, Fritz Haber Institute Berlin, 2009
  #
  #  Suggested "tight" defaults for Au atom (to be pasted into control.in file)
  #
  ################################################################################
    species        Au
  #     global species definitions
      nucleus             79
      mass                196.966569
  #
      l_hartree           6
  #
      cut_pot             4.0  2.0  1.0
      basis_dep_cutoff    1e-4
  #
      radial_base         73 7.0
      radial_multiplier   2
      angular_grids specified
        division   0.3416   50
        division   0.7206  110
        division   1.1171  194
        division   1.2821  302
        division   1.5560  434
  #      division   2.1046  590
  #      division   2.2363  770
  #      division   2.2710  974
  #      division   2.8078 1202
  #      outer_grid 1202
        outer_grid  434
   ################################################################################
  #
  #  Definition of "minimal" basis
  #
  ################################################################################
  #     valence basis states
      valence      6  s   1.
      valence      5  p   6.
      valence      5  d  10.
      valence      4  f  14.
  #     ion occupancy
      ion_occ     6  s   0.
      ion_occ     5  p   6.
      ion_occ     5  d   9.
      ion_occ     4  f   14.
  ################################################################################
  #
  #  Suggested additional basis functions. For production calculations,
  #  uncomment them one after another (the most important basis functions are
  #  listed first).
  #
  #  Constructed for dimers: 2.10, 2.45, 3.00, 4.00 AA
  #
  ################################################################################
  #  "First tier" - max. impr. -161.60  meV, min. impr. -4.53 meV
       ionic 6 p auto
       hydro 4 f 7.4
       ionic 6 s auto
       hydro 5 g 10
       hydro 6 h 12.8
       hydro 3 d 2.5
  #  "Second tier" - max. impr. -2.46  meV, min. impr. -0.28 meV
  #     hydro 5 f 14.8
  #     hydro 4 d 3.9
  #     hydro 3 p 3.3
  #     hydro 1 s 0.45
  #     hydro 5 g 16.4
  #     hydro 6 h 13.6
  #  "Third tier" - max. impr. -0.49  meV, min. impr. -0.09 meV
  #     hydro 4 f 5.2
  #     hydro 4 d 5
  #     hydro 5 g 8
  #     hydro 5 p 8.2
  #     hydro 6 d 12.4
  #     hydro 6 s 14.8
  #  Further basis functions: -0.08 meV and below
  #     hydro 5 f 18.8
  #     hydro 5 g 20
  #    hydro 5 g 15.2
  
  -----------------------------------------------------------------------
  Completed first pass over input file control.in .
  -----------------------------------------------------------------------
  
  
  -----------------------------------------------------------------------
  Parsing geometry.in (first pass over file, find array dimensions only).
  The contents of geometry.in will be repeated verbatim below
  unless switched off by setting 'verbatim_writeout .false.' .
  in the first line of geometry.in .
  -----------------------------------------------------------------------
  
  #
  # This is the geometry file that corresponds to the current relaxation step.
  # If you do not want this file to be written, set the "write_restart_geometry" flag to .false.
  #
  atom       0.00000000      0.00000000      0.27519621 Au
  #atom       0.00000000      0.00000000      2.72480379 Au
  
  -----------------------------------------------------------------------
  Completed first pass over input file geometry.in .
  -----------------------------------------------------------------------
  
 
  Basic array size parameters: 
  | Number of species                 :        1
  | Number of atoms                   :        1
  | Max. basis fn. angular momentum   :        5
  | Max. atomic/ionic basis occupied n:        6
  | Max. number of basis fn. types    :        3
  | Max. radial fns per species/type  :       14
  | Max. logarithmic grid size        :     1488
  | Max. radial integration grid size :      147
  | Max. angular integration grid size:      434
  | Max. angular grid division number :        8
  | Radial grid for Hartree potential :     1488
  | Number of spin channels           :        1

------------------------------------------------------------
          Reading file control.in.
------------------------------------------------------------
  XC: Using Perdew-Wang parametrisation of Ceperley-Alder LDA.
  Spin treatment: No spin polarisation.
  Scalar relativistic treatment of kinetic energy: ZORA.
  Threshold value for ZORA:   0.100000E-11
  Charge =   0.000000E+00: Neutral system requested explicitly.
  Occupation type: Gaussian broadening, width =   0.100000E-01 eV.
  Using pulay charge density mixing.
  Pulay mixing - number of memorized iterations:   10
  Charge density mixing - mixing parameter:     0.5000
  Convergence accuracy of self-consistent charge density: 0.1000E-04
  Convergence accuracy of sum of eigenvalues: 0.1000E-02
  Convergence accuracy of total energy: 0.1000E-05
  Maximum number of s.-c. iterations  :   100
 
  Reading configuration options for species Au                  .
  | Found nuclear charge :  79.0000
  | Found atomic mass :    196.966569000000      amu
  | Found l_max for Hartree potential  :   6
  | Found cutoff potl. onset [A], width [A], scale factor :    4.00000    2.00000    1.00000
  | Threshold for basis-dependent cutoff potential is   0.100000E-03
  | Found data for basic radial integration grid :    73 points, outermost radius =    7.000 A
  | Found multiplier for basic radial grid :   2
  | Found angular grid specification: user-specified.
  | Specified grid contains     6 separate shells.
  | Check grid settings after all constraints further below.
  | Found free-atom valence shell :  6 s   1.000
  | Found free-atom valence shell :  5 p   6.000
  | Found free-atom valence shell :  5 d  10.000
  | Found free-atom valence shell :  4 f  14.000
  | Found free-ion valence shell :  6 s   0.000
  | Found free-ion valence shell :  5 p   6.000
  | Found free-ion valence shell :  5 d   9.000
  | Found free-ion valence shell :  4 f  14.000
  | Found ionic basis function :  6 p , default cutoff radius.
  | Found hydrogenic basis function :  4 f   7.400
  | Found ionic basis function :  6 s , default cutoff radius.
  | Found hydrogenic basis function :  5 g  10.000
  | Found hydrogenic basis function :  6 h  12.800
  | Found hydrogenic basis function :  3 d   2.500
  Species Au                  : Missing cutoff potential type.
  Defaulting to exp(1/x)/(1-x)^2 type cutoff potential.
  Species Au: No 'logarithmic' tag. Using default grid for free atom:
  | Default logarithmic grid data [bohr] : 0.1000E-03 0.1000E+03 0.1012E+01
  | Will include ionic basis functions of  2.0-fold positive Au                   ion.
  Species Au: On-site basis accuracy parameter (for Gram-Schmidt orthonormalisation) not specified.
  Using default value basis_acc =  0.1000000E-03.
  Species Au                  : Using default innermost maximum threshold i_radial=  2 for radial functions.
  Species Au                  : Default cutoff onset for free atom density etc. : 0.40000000E+01 AA.
  Species Au                  : Basic radial grid will be enhanced according to radial_multiplier =   2, to contain   147 grid points.
 
  Finished reading input file 'control.in'. Consistency checks are next.
 
  Target number of points in a grid batch is not set. Defaulting to  100
  Method for grid partitioning is not set. Defaulting to parallel hash+maxmin partitioning.
  Batch size limit is not set. Defaulting to    200
  By default, will store active basis functions for each batch.
  If in need of memory, prune_basis_once .false. can be used to disable this option.
  communication_type for Hartree potential was not specified.
  Defaulting to calc_hartree .
  Pulay mixer: Number of initial linear mixing iterations not set.
  Defaulting to    0 iterations.
  Work space size for distributed Hartree potential not set.
  Defaulting to   0.200000E+03 MB.
  Algorithm-dependent basis array size parameters:
  | n_max_pulay                         :       10
  Calculation of forces was not defined in control.in. No forces will be calculated.
  Geometry relaxation not requested: no relaxation will be performed.
  No accuracy limit for integral partition fn. given. Defaulting to 0.1000E-14.
  No threshold value for u(r) in integrations given. Defaulting to 0.1000E-05.
  No accuracy for occupation numbers given. Defaulting to 0.1000E-07.
  No threshold value for occupation numbers given. Defaulting to 0.0000E+00.
  No accuracy for fermi level given. Defaulting to 0.1000E-19.
  Maximum # of iterations to find E_F not set. Defaulting to  200.
  Preferred method for the eigenvalue solver ('KS_method') not specified in 'control.in'.
  Calling blacs routine to test compilation state
  Since scalapack support is enabled, defaulting to 'elpa'.
  Will not use alltoall communication since running on < 1024 CPUs.
  Threshold for basis singularities not set.
  Default threshold for basis singularities: 0.1000E-04
  partition_type (choice of integration weights) for integrals was not specified.
  | Using a version of the partition function of Stratmann and coworkers ('stratmann_smoother').
  | At each grid point, the set of atoms used to build the partition table is smoothly restricted to
  | only those atoms whose free-atom density would be non-zero at that grid point.
  Partitioning for Hartree potential was not defined. Using partition_type for integrals.
  | Adjusted default value of keyword multip_moments_threshold to:       0.10000000E-11
  | This value may affect high angular momentum components of the Hartree potential in periodic systems.
  No q(lm)/r^(l+1) cutoff set for long-range Hartree potential.
  | Using default value of  0.100000E-09 .
  | Verify using the multipole_threshold keyword.
  Defaulting to new monopole extrapolation.
  Density update method: automatic selection selected.
------------------------------------------------------------


------------------------------------------------------------
          Reading geometry description geometry.in.
------------------------------------------------------------
  Input structure read successfully.
  The structure contains        1 atoms,  and a total of         79.000 electrons.

  Input geometry:
  | No unit cell requested.
  | Atomic structure:
  |       Atom                x [A]            y [A]            z [A]
  |    1: Species Au             0.000000         0.000000         0.275196
  |

  | Isolated single atom, no quantum-mechanical atoms close by.

  Number of empty states per atom not set in control.in - providing a guess from actual geometry.
  | Total number of empty states used during s.c.f. cycle:        9
  If you use a very high smearing, use empty_states (per atom!) in control.in to increase this value.

  Structure-dependent array size parameters: 
  | Maximum number of distinct radial functions  :       20
  | Maximum number of basis functions            :       76
  | Number of Kohn-Sham states (occupied + empty):       49
------------------------------------------------------------

------------------------------------------------------------
          Preparing all fixed parts of the calculation.
------------------------------------------------------------
  Determining machine precision:
    2.225073858507201E-308
  Setting up grids for atomic and cluster calculations.

  Creating wave function, potential, and density for free atoms.

  Species: Au

  List of occupied orbitals and eigenvalues:
    n    l              occ      energy [Ha]    energy [eV]
    1    0           2.0000     -3253.504221    -88532.3543
    2    0           2.0000      -533.272878    -14511.0933
    3    0           2.0000      -124.133751     -3377.8512
    4    0           2.0000       -26.800728      -729.2849
    5    0           2.0000        -3.992501      -108.6415
    6    0           1.0000        -0.222361        -6.0508
    2    1           6.0000      -460.272909    -12524.6631
    3    1           6.0000      -103.428411     -2814.4303
    4    1           6.0000       -20.054932      -545.7225
    5    1           6.0000        -2.203250       -59.9535
    3    2          10.0000       -81.378267     -2214.4153
    4    2          10.0000       -11.977320      -325.9195
    5    2          10.0000        -0.260924        -7.1001
    4    3          14.0000        -3.005792       -81.7918

  Creating fixed part of basis set: Ionic, confined, hydrogenic.
 
  Au                   ion:

  List of free ionic orbitals and eigenvalues:
    n    l      energy [Ha]    energy [eV]
    1    0     -3254.377409    -88556.1150
    2    0      -534.086180    -14533.2244
    3    0      -124.937984     -3399.7355
    4    0       -27.602784      -751.1100
    5    0        -4.790082      -130.3448
    2    1      -461.084679    -12546.7525
    3    1      -104.232198     -2836.3024
    4    1       -20.856809      -567.5427
    5    1        -2.996012       -81.5256
    3    2       -82.181550     -2236.2738
    4    2       -12.778936      -347.7325
    5    2        -1.015310       -27.6280
    4    3        -3.806916      -103.5915


  List of ionic basis orbitals and eigenvalues:
    n    l      energy [Ha]    energy [eV]    outer radius [A]
    6    1        -0.543848       -14.7989       5.411271
    6    0        -0.850631       -23.1468       5.028562

 
  Au                   hydrogenic:
 
  List of hydrogenic basis orbitals: 
    n    l      effective z      eigenvalue [eV]  inner max. [A]     outer max. [A]     outer radius [A]   
    4    3         7.400000       -46.5653           1.145580           1.145580           4.907105
    5    4        10.000000       -54.4226           1.326589           1.326589           5.028562
    6    5        12.800000       -61.9208           1.480879           1.480879           5.153025
    3    2         2.500000        -9.3396           1.868078           1.868078           5.477829
 

  Adding cutoff potential to free-atom effective potential.
  Creating atomic-like basis functions for current effective potential.

  Species Au                  :

  List of atomic basis orbitals and eigenvalues:
    n    l      energy [Ha]    energy [eV]    outer radius [A]
    1    0     -3253.504221    -88532.3543       0.120816
    2    0      -533.272878    -14511.0933       0.313506
    3    0      -124.133751     -3377.8512       0.660860
    4    0       -26.800728      -729.2849       1.376144
    5    0        -3.992501      -108.6415       3.318406
    6    0        -0.222361        -6.0508       5.411271
    2    1      -460.272909    -12524.6631       0.329217
    3    1      -103.428411     -2814.4303       0.702515
    4    1       -20.054932      -545.7225       1.536198
    5    1        -2.203250       -59.9535       4.237546
    3    2       -81.378267     -2214.4153       0.755981
    4    2       -11.977320      -325.9195       1.868078
    5    2        -0.260924        -7.1001       5.345521
    4    3        -3.005792       -81.7918       3.160040

  Assembling full basis from fixed parts.
  | Species Au :   atomic orbital   1 s accepted.
  | Species Au :   atomic orbital   2 s accepted.
  | Species Au :   atomic orbital   3 s accepted.
  | Species Au :   atomic orbital   4 s accepted.
  | Species Au :   atomic orbital   5 s accepted.
  | Species Au :    ionic orbital   6 s accepted.
  | Species Au :   atomic orbital   6 s accepted.
  | Species Au :   atomic orbital   2 p accepted.
  | Species Au :   atomic orbital   3 p accepted.
  | Species Au :   atomic orbital   4 p accepted.
  | Species Au :   atomic orbital   5 p accepted.
  | Species Au :    ionic orbital   6 p accepted.
  | Species Au :   atomic orbital   3 d accepted.
  | Species Au :   atomic orbital   4 d accepted.
  | Species Au :   atomic orbital   5 d accepted.
  | Species Au :    hydro orbital   3 d accepted.
  | Species Au :   atomic orbital   4 f accepted.
  | Species Au :    hydro orbital   4 f accepted.
  | Species Au :    hydro orbital   5 g accepted.
  | Species Au :    hydro orbital   6 h accepted.
 
  Basis size parameters after reduction:
  | Total number of radial functions:       20
  | Total number of basis functions :       76
 
  Testing on-site integration grid accuracy.
  |  Species  Function  <phi|h_atom|phi> (log., in eV)  <phi|h_atom|phi> (rad., in eV)
           1        1             -88532.3543419992             -88532.3344498946
           1        2             -14511.0933175829             -14511.0929252735
           1        3              -3377.8512299488              -3377.8511943917
           1        4               -729.2849102997               -729.2849029177
           1        5               -108.6414693839               -108.6414672950
           1        6                 -5.4446658751                 -5.4446655192
           1        7                  5.1472665138                  5.1472765856
           1        8             -12524.6631134573             -12524.6631041330
           1        9              -2814.4302518233              -2814.4302392218
           1       10               -545.7224734400               -545.7224682492
           1       11                -59.9534842779                -59.9534829265
           1       12                  0.5979237008                  0.5979236546
           1       13              -2214.4153252778              -2214.4153210182
           1       14               -325.9194533093               -325.9194507954
           1       15                 -7.1001748465                 -7.1001744692
           1       16                  5.6255798224                  5.6255907376
           1       17                -81.7917639572                -81.7917634398
           1       18                 21.3101330483                 21.3101329864
           1       19                 37.1289775966                 37.1289776743
           1       20                 49.7708827148                 49.7708830610

  Preparing densities etc. for the partition functions (integrals / Hartree potential).

  Preparations completed.
  max(cpu_time)          :      0.252 s.
  Wall clock time (cpu1) :      0.273 s.
------------------------------------------------------------

------------------------------------------------------------
          Begin self-consistency loop: Initialization.

          Date     :  20130814, Time     :  135733.607
------------------------------------------------------------

  Initializing index lists of integration centers etc. from given atomic structure:
  | Number of centers in hartree potential         :         1
  | Number of centers in hartree multipole         :         1
  | Number of centers in electron density summation:         1
  | Number of centers in basis integrals           :         1
  | Number of centers in integrals                 :         1
  Using modified Scalapack Eigenvalue solver (ELPA)
  * Using 4 tasks for Scalapack Eigenvalue solver.
  Detailed listing of tasks and assigned k-points:
  (for non-periodic systems, the "k-point" denotes an internal label only)
   Task     0 k-point     1 on hp83-ekl-12.ictp.it
   Task     1 k-point     1 on hp83-ekl-12.ictp.it
   Task     2 k-point     1 on hp83-ekl-12.ictp.it
   Task     3 k-point     1 on hp83-ekl-12.ictp.it
  Tasks:     4 split into      2 X      2 BLACS grid
  Calculating blocksize based on n_basis =           76 max_nprow =            2 max_npcol =            2
  Scalapack blocksize set to:           16
  Required Scalapack workspace - INTEGER:            1 REAL:             1
  Partitioning the integration grid into batches with parallel hashing+maxmin method.
  | Number of batches:      347
  | Maximal batch size:     134
  | Minimal batch size:      54
  | Average batch size:      84.121
  | Standard deviation of batch sizes:      25.303

  Integration load balanced across     4 MPI tasks.
  Work distribution over tasks is as follows:
  Task     0 has       7261 integration points.
  Task     1 has       7361 integration points.
  Task     2 has       7282 integration points.
  Task     3 has       7286 integration points.
  Initializing partition tables, free-atom densities, potentials, etc. across the integration grid (initialize_grid_storage).
  | initialize_grid_storage: Actual outermost partition radius vs. multipole_radius_free
  | (-- VB: in principle, multipole_radius_free should be larger, hence this output)
  | Species        1: outer_partition_radius =              6.000000000000000 AA, multipole_radius_free =              6.040632965187119 AA.
  | Original list of interatomic distances with           1 x          1 entries is created.
  | Net number of integration points:    29190
  | of which are non-zero points    :    29190
  Obtaining max. number of non-zero basis functions in each batch (get_n_compute_maxes).
  | Maximal number of non-zero basis functions:       76 in task     0
  | Maximal number of non-zero basis functions:       76 in task     1
  | Maximal number of non-zero basis functions:       76 in task     2
  | Maximal number of non-zero basis functions:       76 in task     3
  Selecting the method for density update.
  Loop over occupied states selected for charge density update.
  Integrating Hamiltonian matrix: batch-based integration.
  Time summed over all CPUs for integration: real work        0.111 s, elapsed        0.135 s
  Integrating overlap matrix.
  Time summed over all CPUs for integration: real work        0.032 s, elapsed        0.032 s
  Deallocating overlap matrix.

  Updating Kohn-Sham eigenvalues, eigenvectors, occupation numbers, and Fermi level.
  Solving generalized eigenproblem
  Solving real symmetric generalised eigenvalue problem by standard ScaLAPACK.
  Transforming overlap matrix with ScaLAPACK and checking for singularities.
  : Overlap matrix is nonsingular, using Cholesky decomposition
  | Lowest eigenvalue:  0.100000E+01
  Factoring overlap matrix with Cholesky decomposition
  Using Cholesky factor for transformation
  Using 1-stage real ELPA solver
  Determining occupation numbers for Kohn-Sham eigenstates.
  | Chemical potential (Fermi level) in eV                 : -.60524966E+01
  | Error in electron count due to remaining E_F inaccuracy: -.67190342E-09
  | Maximum occupation number of highest empty state:  0.00E+00

  Writing Kohn-Sham eigenvalues.

  State    Occupation    Eigenvalue [Ha]    Eigenvalue [eV]
      1       2.00000       -3253.504223       -88532.35439
      2       2.00000        -533.272877       -14511.09331
      3       2.00000        -460.272909       -12524.66311
      4       2.00000        -460.272909       -12524.66311
      5       2.00000        -460.272909       -12524.66311
      6       2.00000        -124.133751        -3377.85122
      7       2.00000        -103.428410        -2814.43024
      8       2.00000        -103.428410        -2814.43024
      9       2.00000        -103.428410        -2814.43024
     10       2.00000         -81.378267        -2214.41532
     11       2.00000         -81.378267        -2214.41532
     12       2.00000         -81.378267        -2214.41532
     13       2.00000         -81.378267        -2214.41532
     14       2.00000         -81.378267        -2214.41532
     15       2.00000         -26.800728         -729.28491
     16       2.00000         -20.054932         -545.72247
     17       2.00000         -20.054932         -545.72247
     18       2.00000         -20.054932         -545.72247
     19       2.00000         -11.977320         -325.91945
     20       2.00000         -11.977320         -325.91945
     21       2.00000         -11.977320         -325.91945
     22       2.00000         -11.977320         -325.91945
     23       2.00000         -11.977320         -325.91945
     24       2.00000          -3.992501         -108.64147
     25       2.00000          -3.005792          -81.79176
     26       2.00000          -3.005792          -81.79176
     27       2.00000          -3.005792          -81.79176
     28       2.00000          -3.005792          -81.79176
     29       2.00000          -3.005792          -81.79176
     30       2.00000          -3.005792          -81.79176
     31       2.00000          -3.005792          -81.79176
     32       2.00000          -2.203250          -59.95348
     33       2.00000          -2.203250          -59.95348
     34       2.00000          -2.203250          -59.95348
     35       2.00000          -0.260927           -7.10017
     36       2.00000          -0.260927           -7.10017
     37       2.00000          -0.260927           -7.10017
     38       2.00000          -0.260927           -7.10017
     39       2.00000          -0.260927           -7.10017
     40       1.00000          -0.222425           -6.05250
     41       0.00000           0.021973            0.59792
     42       0.00000           0.021973            0.59792
     43       0.00000           0.021973            0.59792
     44       0.00000           0.206737            5.62559
     45       0.00000           0.206737            5.62559
     46       0.00000           0.206737            5.62559
     47       0.00000           0.206737            5.62559
     48       0.00000           0.206737            5.62559
     49       0.00000           0.211496            5.75511

  Highest occupied state (VBM) at     -7.10017458 eV
  | Occupation number:      2.00000000

  Lowest unoccupied state (CBM) at    -6.05249656 eV
  | Occupation number:      1.00000000

  Overall HOMO-LUMO gap:      1.04767801 eV.
  Calculating total energy contributions from superposition of free atom densities.

  Total energy components:
  | Sum of eigenvalues            :      -12377.63381921 Ha     -336812.55305484 eV
  | XC energy correction          :        -356.62143194 Ha       -9704.16290542 eV
  | XC potential correction       :         473.46163747 Ha       12883.54666329 eV
  | Free-atom electrostatic energy:       -7412.17420230 Ha     -201695.52219967 eV
  | Hartree energy correction     :           0.00000000 Ha           0.00000000 eV
  | Entropy correction            :          -0.00010367 Ha          -0.00282095 eV
  | ---------------------------
  | Total energy                  :      -19672.96781598 Ha     -535328.69149664 eV
  | Total energy, T -> 0          :      -19672.96791964 Ha     -535328.69431759 eV  <-- do not rely on this value for anything but (periodic) metals
  | Electronic free energy        :      -19672.96802331 Ha     -535328.69713854 eV

  Derived energy quantities:
  | Kinetic energy                :       22070.51229637 Ha      600569.19620837 eV
  | Electrostatic energy          :      -41386.85868040 Ha    -1126193.72479960 eV
  | Energy correction for multipole
  | error in Hartree potential    :           0.00000000 Ha           0.00000000 eV
  | Sum of eigenvalues per atom                           :     -336812.55305484 eV
  | Total energy (T->0) per atom                          :     -535328.69431759 eV  <-- do not rely on this value for anything but (periodic) metals
  | Electronic free energy per atom                       :     -535328.69713854 eV
  Initialize hartree_potential_storage
  Max. number of atoms included in rho_multipole:            1

  End scf initialization - timings             :  max(cpu_time)    wall_clock(cpu1)
  | Time for scf. initialization               :        0.080 s           0.079 s
  | Boundary condition initialization          :        0.000 s           0.000 s
  | Integration                                :        0.044 s           0.042 s
  | Solution of K.-S. eqns.                    :        0.004 s           0.003 s
  | Grid partitioning                          :        0.016 s           0.014 s
  | Preloading free-atom quantities on grid    :        0.012 s           0.009 s
  | Free-atom superposition energy             :        0.004 s           0.003 s
  | Total energy evaluation                    :        0.000 s           0.000 s
------------------------------------------------------------

------------------------------------------------------------
          Begin self-consistency iteration #    1

  Date     :  20130814, Time     :  135733.686
------------------------------------------------------------
  Evaluating new KS density.
  Integration grid: deviation in total charge (<rho> - N_e) =  -6.718892E-10
  Pulay mixing of updated and previous charge densities.

  Evaluating partitioned Hartree potential by multipole expansion.
  | Analytical far-field extrapolation by fixed multipoles:
  | Hartree multipole sum: apparent total charge =  -0.320366E-06
  Summing up the Hartree potential.
  Time summed over all CPUs for potential: real work        0.011 s, elapsed        0.014 s
  | RMS charge density error from multipole expansion :   0.279456E-12

  Integrating Hamiltonian matrix: batch-based integration.
  Time summed over all CPUs for integration: real work        0.109 s, elapsed        0.120 s

  Updating Kohn-Sham eigenvalues, eigenvectors, occupation numbers, and Fermi level.
  Solving generalized eigenproblem
  Solving real symmetric generalised eigenvalue problem by standard ScaLAPACK.
  Using Cholesky factor for transformation
  Using 1-stage real ELPA solver
  Determining occupation numbers for Kohn-Sham eigenstates.
  | Chemical potential (Fermi level) in eV                 : -.60546043E+01
  | Error in electron count due to remaining E_F inaccuracy: -.33833203E-09
  | Maximum occupation number of highest empty state:  0.00E+00

  Writing Kohn-Sham eigenvalues.

  State    Occupation    Eigenvalue [Ha]    Eigenvalue [eV]
      1       2.00000       -3253.504579       -88532.36408
      2       2.00000        -533.273212       -14511.10243
      3       2.00000        -460.273244       -12524.67222
      4       2.00000        -460.273244       -12524.67222
      5       2.00000        -460.273244       -12524.67222
      6       2.00000        -124.134067        -3377.85981
      7       2.00000        -103.428726        -2814.43883
      8       2.00000        -103.428726        -2814.43883
      9       2.00000        -103.428726        -2814.43883
     10       2.00000         -81.378585        -2214.42398
     11       2.00000         -81.378585        -2214.42398
     12       2.00000         -81.378585        -2214.42398
     13       2.00000         -81.378585        -2214.42398
     14       2.00000         -81.378585        -2214.42398
     15       2.00000         -26.801018         -729.29279
     16       2.00000         -20.055219         -545.73028
     17       2.00000         -20.055219         -545.73028
     18       2.00000         -20.055219         -545.73028
     19       2.00000         -11.977604         -325.92720
     20       2.00000         -11.977604         -325.92720
     21       2.00000         -11.977604         -325.92720
     22       2.00000         -11.977604         -325.92720
     23       2.00000         -11.977604         -325.92720
     24       2.00000          -3.992735         -108.64785
     25       2.00000          -3.006072          -81.79939
     26       2.00000          -3.006072          -81.79939
     27       2.00000          -3.006072          -81.79939
     28       2.00000          -3.006072          -81.79939
     29       2.00000          -3.006072          -81.79939
     30       2.00000          -3.006072          -81.79939
     31       2.00000          -3.006072          -81.79939
     32       2.00000          -2.203467          -59.95940
     33       2.00000          -2.203467          -59.95940
     34       2.00000          -2.203467          -59.95940
     35       2.00000          -0.261088           -7.10456
     36       2.00000          -0.261088           -7.10456
     37       2.00000          -0.261088           -7.10456
     38       2.00000          -0.261088           -7.10456
     39       2.00000          -0.261088           -7.10456
     40       1.00000          -0.222503           -6.05460
     41       0.00000           0.021906            0.59608
     42       0.00000           0.021906            0.59608
     43       0.00000           0.021906            0.59608
     44       0.00000           0.206680            5.62406
     45       0.00000           0.206680            5.62406
     46       0.00000           0.206680            5.62406
     47       0.00000           0.206680            5.62406
     48       0.00000           0.206680            5.62406
     49       0.00000           0.211427            5.75323

  Highest occupied state (VBM) at     -7.10456362 eV
  | Occupation number:      2.00000000

  Lowest unoccupied state (CBM) at    -6.05460428 eV
  | Occupation number:      1.00000000

  Overall HOMO-LUMO gap:      1.04995934 eV.

  Total energy components:
  | Sum of eigenvalues            :      -12377.65545272 Ha     -336813.14173244 eV
  | XC energy correction          :        -356.62098157 Ha       -9704.15065025 eV
  | XC potential correction       :         473.46104251 Ha       12883.53047347 eV
  | Free-atom electrostatic energy:       -7412.17420230 Ha     -201695.52219967 eV
  | Hartree energy correction     :           0.02160789 Ha           0.58798060 eV
  | Entropy correction            :          -0.00010367 Ha          -0.00282095 eV
  | ---------------------------
  | Total energy                  :      -19672.96798619 Ha     -535328.69612828 eV
  | Total energy, T -> 0          :      -19672.96808985 Ha     -535328.69894923 eV  <-- do not rely on this value for anything but (periodic) metals
  | Electronic free energy        :      -19672.96819352 Ha     -535328.70177018 eV

  Derived energy quantities:
  | Kinetic energy                :       22070.50853358 Ha      600569.09381771 eV
  | Electrostatic energy          :      -41386.85553819 Ha    -1126193.63929575 eV
  | Energy correction for multipole
  | error in Hartree potential    :           0.00000000 Ha           0.00000000 eV
  | Sum of eigenvalues per atom                           :     -336813.14173244 eV
  | Total energy (T->0) per atom                          :     -535328.69894923 eV  <-- do not rely on this value for anything but (periodic) metals
  | Electronic free energy per atom                       :     -535328.70177018 eV

  Self-consistency convergence accuracy:
  | Change of charge density      : 0.2191E-03
  | Change of sum of eigenvalues  : -.5887E+00 eV
  | Change of total energy        : -.4632E-02 eV

  End self-consistency iteration #     1       :  max(cpu_time)    wall_clock(cpu1)
  | Time for this iteration                    :        0.044 s           0.044 s
  | Charge density update                      :        0.008 s           0.007 s
  | Density mixing                             :        0.000 s           0.000 s
  | Hartree multipole update                   :        0.004 s           0.001 s
  | Hartree multipole summation                :        0.004 s           0.005 s
  | Integration                                :        0.032 s           0.030 s
  | Solution of K.-S. eqns.                    :        0.004 s           0.001 s
  | Total energy evaluation                    :        0.000 s           0.000 s
------------------------------------------------------------

------------------------------------------------------------
          Begin self-consistency iteration #    2

  Date     :  20130814, Time     :  135733.731
------------------------------------------------------------
  Evaluating new KS density.
  Integration grid: deviation in total charge (<rho> - N_e) =  -3.384173E-10
  Pulay mixing of updated and previous charge densities.

  Evaluating partitioned Hartree potential by multipole expansion.
  | Analytical far-field extrapolation by fixed multipoles:
  | Hartree multipole sum: apparent total charge =  -0.449079E-06
  Summing up the Hartree potential.
  Time summed over all CPUs for potential: real work        0.010 s, elapsed        0.010 s
  | RMS charge density error from multipole expansion :   0.186941E-10

  Integrating Hamiltonian matrix: batch-based integration.
  Time summed over all CPUs for integration: real work        0.103 s, elapsed        0.112 s

  Updating Kohn-Sham eigenvalues, eigenvectors, occupation numbers, and Fermi level.
  Solving generalized eigenproblem
  Solving real symmetric generalised eigenvalue problem by standard ScaLAPACK.
  Using Cholesky factor for transformation
  Using 1-stage real ELPA solver
  Determining occupation numbers for Kohn-Sham eigenstates.
  | Chemical potential (Fermi level) in eV                 : -.60545252E+01
  | Error in electron count due to remaining E_F inaccuracy: -.35674930E-09
  | Maximum occupation number of highest empty state:  0.00E+00

  Highest occupied state (VBM) at     -7.10413692 eV
  | Occupation number:      2.00000000

  Lowest unoccupied state (CBM) at    -6.05452523 eV
  | Occupation number:      1.00000000

  Overall HOMO-LUMO gap:      1.04961169 eV.

  Total energy components:
  | Sum of eigenvalues            :      -12377.65189683 Ha     -336813.04497169 eV
  | XC energy correction          :        -356.62106949 Ha       -9704.15304282 eV
  | XC potential correction       :         473.46115918 Ha       12883.53364822 eV
  | Free-atom electrostatic energy:       -7412.17420230 Ha     -201695.52219967 eV
  | Hartree energy correction     :           0.01805709 Ha           0.49135834 eV
  | Entropy correction            :          -0.00010367 Ha          -0.00282095 eV
  | ---------------------------
  | Total energy                  :      -19672.96795235 Ha     -535328.69520761 eV
  | Total energy, T -> 0          :      -19672.96805602 Ha     -535328.69802856 eV  <-- do not rely on this value for anything but (periodic) metals
  | Electronic free energy        :      -19672.96815969 Ha     -535328.70084951 eV

  Derived energy quantities:
  | Kinetic energy                :       22070.51086923 Ha      600569.15737395 eV
  | Electrostatic energy          :      -41386.85775208 Ha    -1126193.69953874 eV
  | Energy correction for multipole
  | error in Hartree potential    :           0.00000000 Ha           0.00000000 eV
  | Sum of eigenvalues per atom                           :     -336813.04497169 eV
  | Total energy (T->0) per atom                          :     -535328.69802856 eV  <-- do not rely on this value for anything but (periodic) metals
  | Electronic free energy per atom                       :     -535328.70084951 eV

  Self-consistency convergence accuracy:
  | Change of charge density      : 0.9022E-04
  | Change of sum of eigenvalues  : 0.9676E-01 eV
  | Change of total energy        : 0.9207E-03 eV

  End self-consistency iteration #     2       :  max(cpu_time)    wall_clock(cpu1)
  | Time for this iteration                    :        0.044 s           0.041 s
  | Charge density update                      :        0.008 s           0.007 s
  | Density mixing                             :        0.000 s           0.000 s
  | Hartree multipole update                   :        0.004 s           0.001 s
  | Hartree multipole summation                :        0.004 s           0.003 s
  | Integration                                :        0.028 s           0.028 s
  | Solution of K.-S. eqns.                    :        0.004 s           0.002 s
  | Total energy evaluation                    :        0.000 s           0.000 s
------------------------------------------------------------

------------------------------------------------------------
          Begin self-consistency iteration #    3

  Date     :  20130814, Time     :  135733.772
------------------------------------------------------------
  Evaluating new KS density.
  Integration grid: deviation in total charge (<rho> - N_e) =  -3.568630E-10
  Pulay mixing of updated and previous charge densities.

  Evaluating partitioned Hartree potential by multipole expansion.
  | Analytical far-field extrapolation by fixed multipoles:
  | Hartree multipole sum: apparent total charge =  -0.645487E-06
  Summing up the Hartree potential.
  Time summed over all CPUs for potential: real work        0.010 s, elapsed        0.010 s
  | RMS charge density error from multipole expansion :   0.779368E-10

  Integrating Hamiltonian matrix: batch-based integration.
  Time summed over all CPUs for integration: real work        0.105 s, elapsed        0.120 s

  Updating Kohn-Sham eigenvalues, eigenvectors, occupation numbers, and Fermi level.
  Solving generalized eigenproblem
  Solving real symmetric generalised eigenvalue problem by standard ScaLAPACK.
  Using Cholesky factor for transformation
  Using 1-stage real ELPA solver
  Determining occupation numbers for Kohn-Sham eigenstates.
  | Chemical potential (Fermi level) in eV                 : -.60547739E+01
  | Error in electron count due to remaining E_F inaccuracy: -.33790570E-09
  | Maximum occupation number of highest empty state:  0.00E+00

  Highest occupied state (VBM) at     -7.10438079 eV
  | Occupation number:      2.00000000

  Lowest unoccupied state (CBM) at    -6.05477387 eV
  | Occupation number:      1.00000000

  Overall HOMO-LUMO gap:      1.04960693 eV.

  Total energy components:
  | Sum of eigenvalues            :      -12377.65165836 Ha     -336813.03848261 eV
  | XC energy correction          :        -356.62108849 Ha       -9704.15355977 eV
  | XC potential correction       :         473.46118479 Ha       12883.53434528 eV
  | Free-atom electrostatic energy:       -7412.17420230 Ha     -201695.52219967 eV
  | Hartree energy correction     :           0.01781975 Ha           0.48489999 eV
  | Entropy correction            :          -0.00010367 Ha          -0.00282095 eV
  | ---------------------------
  | Total energy                  :      -19672.96794460 Ha     -535328.69499679 eV
  | Total energy, T -> 0          :      -19672.96804827 Ha     -535328.69781774 eV  <-- do not rely on this value for anything but (periodic) metals
  | Electronic free energy        :      -19672.96815194 Ha     -535328.70063869 eV

  Derived energy quantities:
  | Kinetic energy                :       22070.51268709 Ha      600569.20684042 eV
  | Electrostatic energy          :      -41386.85954320 Ha    -1126193.74827744 eV
  | Energy correction for multipole
  | error in Hartree potential    :           0.00000000 Ha           0.00000000 eV
  | Sum of eigenvalues per atom                           :     -336813.03848261 eV
  | Total energy (T->0) per atom                          :     -535328.69781774 eV  <-- do not rely on this value for anything but (periodic) metals
  | Electronic free energy per atom                       :     -535328.70063869 eV

  Self-consistency convergence accuracy:
  | Change of charge density      : 0.3808E-04
  | Change of sum of eigenvalues  : 0.6489E-02 eV
  | Change of total energy        : 0.2108E-03 eV

  End self-consistency iteration #     3       :  max(cpu_time)    wall_clock(cpu1)
  | Time for this iteration                    :        0.044 s           0.043 s
  | Charge density update                      :        0.008 s           0.007 s
  | Density mixing                             :        0.004 s           0.000 s
  | Hartree multipole update                   :        0.000 s           0.002 s
  | Hartree multipole summation                :        0.004 s           0.003 s
  | Integration                                :        0.032 s           0.030 s
  | Solution of K.-S. eqns.                    :        0.004 s           0.001 s
  | Total energy evaluation                    :        0.000 s           0.000 s
------------------------------------------------------------

------------------------------------------------------------
          Begin self-consistency iteration #    4

  Date     :  20130814, Time     :  135733.815
------------------------------------------------------------
  Evaluating new KS density.
  Integration grid: deviation in total charge (<rho> - N_e) =  -3.381047E-10
  Pulay mixing of updated and previous charge densities.

  Evaluating partitioned Hartree potential by multipole expansion.
  | Analytical far-field extrapolation by fixed multipoles:
  | Hartree multipole sum: apparent total charge =  -0.648116E-06
  Summing up the Hartree potential.
  Time summed over all CPUs for potential: real work        0.010 s, elapsed        0.010 s
  | RMS charge density error from multipole expansion :   0.464808E-10

  Integrating Hamiltonian matrix: batch-based integration.
  Time summed over all CPUs for integration: real work        0.103 s, elapsed        0.110 s

  Updating Kohn-Sham eigenvalues, eigenvectors, occupation numbers, and Fermi level.
  Solving generalized eigenproblem
  Solving real symmetric generalised eigenvalue problem by standard ScaLAPACK.
  Using Cholesky factor for transformation
  Using 1-stage real ELPA solver
  Determining occupation numbers for Kohn-Sham eigenstates.
  | Chemical potential (Fermi level) in eV                 : -.60547689E+01
  | Error in electron count due to remaining E_F inaccuracy: -.33901415E-09
  | Maximum occupation number of highest empty state:  0.00E+00

  Highest occupied state (VBM) at     -7.10437608 eV
  | Occupation number:      2.00000000

  Lowest unoccupied state (CBM) at    -6.05476886 eV
  | Occupation number:      1.00000000

  Overall HOMO-LUMO gap:      1.04960723 eV.

  Total energy components:
  | Sum of eigenvalues            :      -12377.65173015 Ha     -336813.04043627 eV
  | XC energy correction          :        -356.62108630 Ha       -9704.15350021 eV
  | XC potential correction       :         473.46118188 Ha       12883.53426587 eV
  | Free-atom electrostatic energy:       -7412.17420230 Ha     -201695.52219967 eV
  | Hartree energy correction     :           0.01789139 Ha           0.48684955 eV
  | Entropy correction            :          -0.00010367 Ha          -0.00282095 eV
  | ---------------------------
  | Total energy                  :      -19672.96794548 Ha     -535328.69502073 eV
  | Total energy, T -> 0          :      -19672.96804915 Ha     -535328.69784168 eV  <-- do not rely on this value for anything but (periodic) metals
  | Electronic free energy        :      -19672.96815282 Ha     -535328.70066262 eV

  Derived energy quantities:
  | Kinetic energy                :       22070.51262430 Ha      600569.20513192 eV
  | Electrostatic energy          :      -41386.85948348 Ha    -1126193.74665244 eV
  | Energy correction for multipole
  | error in Hartree potential    :           0.00000000 Ha           0.00000000 eV
  | Sum of eigenvalues per atom                           :     -336813.04043627 eV
  | Total energy (T->0) per atom                          :     -535328.69784168 eV  <-- do not rely on this value for anything but (periodic) metals
  | Electronic free energy per atom                       :     -535328.70066262 eV

  Self-consistency convergence accuracy:
  | Change of charge density      : 0.1365E-05
  | Change of sum of eigenvalues  : -.1954E-02 eV
  | Change of total energy        : -.2394E-04 eV

  End self-consistency iteration #     4       :  max(cpu_time)    wall_clock(cpu1)
  | Time for this iteration                    :        0.040 s           0.041 s
  | Charge density update                      :        0.008 s           0.008 s
  | Density mixing                             :        0.004 s           0.000 s
  | Hartree multipole update                   :        0.000 s           0.001 s
  | Hartree multipole summation                :        0.004 s           0.003 s
  | Integration                                :        0.028 s           0.028 s
  | Solution of K.-S. eqns.                    :        0.000 s           0.001 s
  | Total energy evaluation                    :        0.000 s           0.000 s
------------------------------------------------------------

------------------------------------------------------------
          Begin self-consistency iteration #    5

  Date     :  20130814, Time     :  135733.857
------------------------------------------------------------
  Evaluating new KS density.
  Integration grid: deviation in total charge (<rho> - N_e) =  -3.390426E-10
  Pulay mixing of updated and previous charge densities.

  Evaluating partitioned Hartree potential by multipole expansion.
  | Analytical far-field extrapolation by fixed multipoles:
  | Hartree multipole sum: apparent total charge =  -0.648164E-06
  Summing up the Hartree potential.
  Time summed over all CPUs for potential: real work        0.010 s, elapsed        0.010 s
  | RMS charge density error from multipole expansion :   0.425053E-10

  Integrating Hamiltonian matrix: batch-based integration.
  Time summed over all CPUs for integration: real work        0.103 s, elapsed        0.110 s

  Updating Kohn-Sham eigenvalues, eigenvectors, occupation numbers, and Fermi level.
  Solving generalized eigenproblem
  Solving real symmetric generalised eigenvalue problem by standard ScaLAPACK.
  Using Cholesky factor for transformation
  Using 1-stage real ELPA solver
  Determining occupation numbers for Kohn-Sham eigenstates.
  | Chemical potential (Fermi level) in eV                 : -.60547685E+01
  | Error in electron count due to remaining E_F inaccuracy: -.33909942E-09
  | Maximum occupation number of highest empty state:  0.00E+00

  Highest occupied state (VBM) at     -7.10437570 eV
  | Occupation number:      2.00000000

  Lowest unoccupied state (CBM) at    -6.05476852 eV
  | Occupation number:      1.00000000

  Overall HOMO-LUMO gap:      1.04960718 eV.

  Total energy components:
  | Sum of eigenvalues            :      -12377.65172916 Ha     -336813.04040940 eV
  | XC energy correction          :        -356.62108632 Ha       -9704.15350077 eV
  | XC potential correction       :         473.46118190 Ha       12883.53426661 eV
  | Free-atom electrostatic energy:       -7412.17420230 Ha     -201695.52219967 eV
  | Hartree energy correction     :           0.01789041 Ha           0.48682271 eV
  | Entropy correction            :          -0.00010367 Ha          -0.00282095 eV
  | ---------------------------
  | Total energy                  :      -19672.96794548 Ha     -535328.69502052 eV
  | Total energy, T -> 0          :      -19672.96804914 Ha     -535328.69784147 eV  <-- do not rely on this value for anything but (periodic) metals
  | Electronic free energy        :      -19672.96815281 Ha     -535328.70066242 eV

  Derived energy quantities:
  | Kinetic energy                :       22070.51262462 Ha      600569.20514064 eV
  | Electrostatic energy          :      -41386.85948377 Ha    -1126193.74666039 eV
  | Energy correction for multipole
  | error in Hartree potential    :           0.00000000 Ha           0.00000000 eV
  | Sum of eigenvalues per atom                           :     -336813.04040940 eV
  | Total energy (T->0) per atom                          :     -535328.69784147 eV  <-- do not rely on this value for anything but (periodic) metals
  | Electronic free energy per atom                       :     -535328.70066242 eV

  Self-consistency convergence accuracy:
  | Change of charge density      : 0.3338E-07
  | Change of sum of eigenvalues  : 0.2688E-04 eV
  | Change of total energy        : 0.2067E-06 eV

  Writing Kohn-Sham eigenvalues.

  State    Occupation    Eigenvalue [Ha]    Eigenvalue [eV]
      1       2.00000       -3253.504486       -88532.36155
      2       2.00000        -533.273138       -14511.10039
      3       2.00000        -460.273169       -12524.67018
      4       2.00000        -460.273169       -12524.67018
      5       2.00000        -460.273169       -12524.67018
      6       2.00000        -124.134003        -3377.85808
      7       2.00000        -103.428662        -2814.43710
      8       2.00000        -103.428662        -2814.43710
      9       2.00000        -103.428662        -2814.43710
     10       2.00000         -81.378521        -2214.42222
     11       2.00000         -81.378521        -2214.42222
     12       2.00000         -81.378521        -2214.42222
     13       2.00000         -81.378521        -2214.42222
     14       2.00000         -81.378521        -2214.42222
     15       2.00000         -26.800967         -729.29141
     16       2.00000         -20.055170         -545.72893
     17       2.00000         -20.055170         -545.72893
     18       2.00000         -20.055170         -545.72893
     19       2.00000         -11.977556         -325.92588
     20       2.00000         -11.977556         -325.92588
     21       2.00000         -11.977556         -325.92588
     22       2.00000         -11.977556         -325.92588
     23       2.00000         -11.977556         -325.92588
     24       2.00000          -3.992708         -108.64711
     25       2.00000          -3.006026          -81.79812
     26       2.00000          -3.006026          -81.79812
     27       2.00000          -3.006026          -81.79812
     28       2.00000          -3.006026          -81.79812
     29       2.00000          -3.006026          -81.79812
     30       2.00000          -3.006026          -81.79812
     31       2.00000          -3.006026          -81.79812
     32       2.00000          -2.203446          -59.95882
     33       2.00000          -2.203446          -59.95882
     34       2.00000          -2.203446          -59.95882
     35       2.00000          -0.261081           -7.10438
     36       2.00000          -0.261081           -7.10438
     37       2.00000          -0.261081           -7.10438
     38       2.00000          -0.261081           -7.10438
     39       2.00000          -0.261081           -7.10438
     40       1.00000          -0.222509           -6.05477
     41       0.00000           0.021899            0.59591
     42       0.00000           0.021899            0.59591
     43       0.00000           0.021899            0.59591
     44       0.00000           0.206674            5.62390
     45       0.00000           0.206674            5.62390
     46       0.00000           0.206674            5.62390
     47       0.00000           0.206674            5.62390
     48       0.00000           0.206674            5.62390
     49       0.00000           0.211421            5.75306

  Highest occupied state (VBM) at     -7.10437570 eV
  | Occupation number:      2.00000000

  Lowest unoccupied state (CBM) at    -6.05476852 eV
  | Occupation number:      1.00000000

  Overall HOMO-LUMO gap:      1.04960718 eV.

  Self-consistency cycle converged.

  End self-consistency iteration #     5       :  max(cpu_time)    wall_clock(cpu1)
  | Time for this iteration                    :        0.040 s           0.041 s
  | Charge density update                      :        0.008 s           0.007 s
  | Density mixing                             :        0.000 s           0.000 s
  | Hartree multipole update                   :        0.000 s           0.002 s
  | Hartree multipole summation                :        0.004 s           0.003 s
  | Integration                                :        0.028 s           0.027 s
  | Solution of K.-S. eqns.                    :        0.000 s           0.001 s
  | Total energy evaluation                    :        0.000 s           0.001 s
------------------------------------------------------------

------------------------------------------------------------
          Post-processing: scaled ZORA corrections to eigenvalues and total energy.

  Date     :  20130814, Time     :  135733.898
------------------------------------------------------------
  Computing correction matrix for scaled ZORA eigenvalues.
  Evaluating scaled zora correction for each Kohn-Sham eigenstate.
  Evaluating scaled zora correction for each Kohn-Sham eigenstate.
  Determining occupation numbers for Kohn-Sham eigenstates.
  | Chemical potential (Fermi level) in eV                 : -.60544048E+01
  | Error in electron count due to remaining E_F inaccuracy: 0.17053026E-12
  | Maximum occupation number of highest empty state:  0.00E+00

  Writing Kohn-Sham eigenvalues.

  State    Occupation    Eigenvalue [Ha]    Eigenvalue [eV]
      1       2.00000       -2960.294111       -80553.70130
      2       2.00000        -522.253681       -14211.24571
      3       2.00000        -451.500718       -12285.95965
      4       2.00000        -451.500718       -12285.95965
      5       2.00000        -451.500718       -12285.95965
      6       2.00000        -123.278424        -3354.57660
      7       2.00000        -102.771832        -2796.56383
      8       2.00000        -102.771832        -2796.56383
      9       2.00000        -102.771832        -2796.56383
     10       2.00000         -80.894130        -2201.24127
     11       2.00000         -80.894130        -2201.24127
     12       2.00000         -80.894130        -2201.24127
     13       2.00000         -80.894130        -2201.24127
     14       2.00000         -80.894130        -2201.24127
     15       2.00000         -26.738275         -727.58548
     16       2.00000         -20.013970         -544.60783
     17       2.00000         -20.013970         -544.60783
     18       2.00000         -20.013970         -544.60783
     19       2.00000         -11.956661         -325.35730
     20       2.00000         -11.956661         -325.35730
     21       2.00000         -11.956661         -325.35730
     22       2.00000         -11.956661         -325.35730
     23       2.00000         -11.956661         -325.35730
     24       2.00000          -3.990347         -108.58286
     25       2.00000          -3.002032          -81.68943
     26       2.00000          -3.002032          -81.68943
     27       2.00000          -3.002032          -81.68943
     28       2.00000          -3.002032          -81.68943
     29       2.00000          -3.002032          -81.68943
     30       2.00000          -3.002032          -81.68943
     31       2.00000          -3.002032          -81.68943
     32       2.00000          -2.202463          -59.93206
     33       2.00000          -2.202463          -59.93206
     34       2.00000          -2.202463          -59.93206
     35       2.00000          -0.261027           -7.10290
     36       2.00000          -0.261027           -7.10290
     37       2.00000          -0.261027           -7.10290
     38       2.00000          -0.261027           -7.10290
     39       2.00000          -0.261027           -7.10290
     40       1.00000          -0.222495           -6.05440
     41       0.00000           0.021898            0.59587
     42       0.00000           0.021898            0.59587
     43       0.00000           0.021898            0.59587
     44       0.00000           0.206661            5.62354
     45       0.00000           0.206661            5.62354
     46       0.00000           0.206661            5.62354
     47       0.00000           0.206661            5.62354
     48       0.00000           0.206661            5.62354
     49       0.00000           0.211403            5.75258

  Highest occupied state (VBM) at     -6.05440482 eV
  | Occupation number:      1.00000000

  Lowest unoccupied state (CBM) at     0.59587276 eV
  | Occupation number:      0.00000000

  Overall HOMO-LUMO gap:      6.65027757 eV.

  Total energy components:
  | Sum of eigenvalues            :      -11705.41268170 Ha     -318520.48521305 eV
  | XC energy correction          :        -356.62108632 Ha       -9704.15350077 eV
  | XC potential correction       :         473.46118190 Ha       12883.53426661 eV
  | Free-atom electrostatic energy:       -7412.17420230 Ha     -201695.52219967 eV
  | Hartree energy correction     :           0.01789041 Ha           0.48682271 eV
  | Entropy correction            :          -0.00010367 Ha          -0.00282095 eV
  | ---------------------------
  | Total energy                  :      -19000.72889802 Ha     -517036.13982418 eV
  | Total energy, T -> 0          :      -19000.72900168 Ha     -517036.14264512 eV  <-- do not rely on this value for anything but (periodic) metals
  | Electronic free energy        :      -19000.72910535 Ha     -517036.14546607 eV

  Derived energy quantities:
  | Kinetic energy                :       22742.75167208 Ha      618861.76033698 eV
  | Electrostatic energy          :      -41386.85948377 Ha    -1126193.74666039 eV
  | Energy correction for multipole
  | error in Hartree potential    :           0.00000000 Ha           0.00000000 eV
  | Sum of eigenvalues per atom                           :     -318520.48521305 eV
  | Total energy (T->0) per atom                          :     -517036.14264512 eV  <-- do not rely on this value for anything but (periodic) metals
  | Electronic free energy per atom                       :     -517036.14546607 eV
  End evaluation of scaled ZORA corrections.
  | Time for scaled ZORA corrections           :        0.040 s           0.041 s
------------------------------------------------------------
 
  Energy and forces in a compact form:
  | Total energy uncorrected      :         -0.517036139824175E+06 eV
  | Total energy corrected        :         -0.517036142645123E+06 eV  <-- do not rely on this value for anything but (periodic) metals
  | Electronic free energy        :         -0.517036145466071E+06 eV
 
  ------------------------------------ 
  Start decomposition of the XC Energy 
  ------------------------------------ 
  Hartree-Fock part   :          0.000000000 Ha              0.000000000 eV
  ------------------------------------ 
  X Energy            :       -348.355027913 Ha          -9479.222607062 eV
  C Energy GGA        :         -8.266058411 Ha           -224.930893712 eV
  Total XC Energy     :       -356.621086324 Ha          -9704.153500774 eV
  LDA X and C from self-consistent density 
  X Energy LDA        :       -348.355027913 Ha          -9479.222607062 eV
  C Energy LDA        :         -8.266058411 Ha           -224.930893712 eV
  ------------------------------------ 
  End decomposition of the XC Energy 
  ------------------------------------ 

------------------------------------------------------------------------------
  Final output of selected total energy values:

  The following output summarizes some interesting total energy values
  at the end of a run (AFTER all relaxation, molecular dynamics, etc.).

  | Total energy of the DFT / Hartree-Fock s.c.f. calculation      :        -517036.139824175 eV
  | Final zero-broadening corrected energy (caution - metals only) :        -517036.142645123 eV
  | For reference only, the value of 1 Hartree used in FHI-aims is :             27.211384500 eV

  Before relying on these values, please be sure to understand exactly which
  total energy value is referred to by a given number. Different objects may
  all carry the same name 'total energy'. Definitions:

  Total energy of the DFT / Hartree-Fock s.c.f. calculation:
  | Note that this energy does not include ANY quantities calculated after the
  | s.c.f. cycle, in particular not ANY RPA, MP2, etc. many-body perturbation terms.
  | Scalar relativistic effects have been included in the 'scaled ZORA' approximation.

  Final zero-broadening corrected energy:
  | For metallic systems only, a broadening of the occupation numbers at the Fermi
  | level can be extrapolated back to zero broadening by an electron-gas inspired
  | formula. For all systems that are not real metals, this value can be
  | meaningless and should be avoided.

------------------------------------------------------------------------------

------------------------------------------------------------
          Leaving FHI-aims.
          Date     :  20130814, Time     :  135733.944

          Computational steps:
          | Number of self-consistency cycles          :            5

          Detailed time accounting                     :  max(cpu_time)    wall_clock(cpu1)
          | Total time                                 :        0.632 s           0.639 s
          | Preparation time                           :        0.252 s           0.273 s
          | Grid partitioning                          :        0.016 s           0.014 s
          | Preloading free-atom quantities on grid    :        0.012 s           0.009 s
          | Free-atom superposition energy             :        0.004 s           0.003 s
          | Total time for integrations                :        0.192 s           0.185 s
          | Total time for solution of K.-S. equations :        0.016 s           0.009 s
          | Total time for density update              :        0.040 s           0.036 s
          | Total time for mixing                      :        0.008 s           0.000 s
          | Total time for Hartree multipole update    :        0.008 s           0.007 s
          | Total time for Hartree multipole sum       :        0.020 s           0.017 s
          | Total time for total energy evaluation     :        0.000 s           0.001 s
          | Total time for scaled ZORA corrections     :        0.040 s           0.041 s

          Have a nice day.
------------------------------------------------------------
