  MPI-parallelism will be employed.
------------------------------------------------------------
          Invoking FHI-aims ...
          Version 101914
          Git rev. (modified): 87df676 working on the DMFT band structure output
          Compiled on 2015/11/13 at 20:24:21 on host theobook103.

          When using FHI-aims, please cite the following reference:

          Volker Blum, Ralf Gehrke, Felix Hanke, Paula Havu,
          Ville Havu, Xinguo Ren, Karsten Reuter, and Matthias Scheffler,
          'Ab Initio Molecular Simulations with Numeric Atom-Centered Orbitals: FHI-aims',
          Computer Physics Communications 180, 2175-2196 (2009)

          For any questions about FHI-aims, please visit the aimsclub website
          with its forums and wiki. Contributions to both the forums and the
          wiki are warmly encouraged - they are for you, and everyone is welcome there.

------------------------------------------------------------

  Date     :  20160215, Time     :  163430.195
  Time zero on CPU 1             :   0.701800000000000E-02  s.
  Internal wall clock time zero  :           224786070.195  s.

  Using        1 parallel tasks.
  Task        0 on host theobook103 reporting.

  Performing system and environment tests:
  *** Environment variable OMP_NUM_THREADS is not set
  *** For performance reasons you might want to set it to 1
  | Stacksize not measured: no C compiler
  | Checking for scalapack...
  | No scalapack compiled in.

  Obtaining array dimensions for all initial allocations:
  
  -----------------------------------------------------------------------
  Parsing control.in (first pass over file, find array dimensions only).
  The contents of control.in will be repeated verbatim below
  unless switched off by setting 'verbatim_writeout .false.' .
  in the first line of control.in .
  -----------------------------------------------------------------------
  
  #################################
  #  xc             pw-lda
   xc             pbe
  #  xc             hf
  #  sc_self_energy dmft_gw 0.3
   #sc_self_energy dmft_pbe0 0.5 0.25
  # sc_self_energy scgw
  ################################# Periodic
  #  k_grid 16 16 16
  #  k_grid 10 10 10
    #k_offset 0.5 0.5 0.5
    #k_grid 6 6 6
  # k_grid  8 8 8
  #  k_grid 4 4 4
  #  k_grid 10 10 10
  #  k_offset 1 1 1
  #  use_hf_kspace     .true.
  #  RI_method       V
  ################################# RPA and GW
  #  total_energy_method rpa
  #  qpe_calc gw
  #  state_upper_limit 10000
    frequency_points 20
    maximum_frequency 7000
    time_points 20
    maximum_time 1000
  #  empty_states       5000
  ################################# Spin
    spin none
  #  spin collinear
  #  multiplicity 0
  #  default_initial_moment 1
  ################################# Convergence
  #  occupation_type gaussian 0.1  # good for Si with lattice constant 2.7
    occupation_type gaussian 0.1
  #  occupation_type gaussian 0.5
    mixer          pulay
    charge_mix_param  0.5
    n_max_pulay      10
  #  preconditioner kerker 1.5
    sc_accuracy_rho  1E-5
    sc_accuracy_eev  1E-3
    sc_accuracy_etot 1E-6
    sc_iter_limit 200
  ################################# Performance
  #  relativistic   zora scalar 1e-12
    relativistic       atomic_zora scalar
  #  relativistic  none
  #  KS_method      lapack
  #  basis_threshold 1.e-5
  #  prodbas_threshold 1.e-4
  #  occupation_acc 1e-08
  #  partition_acc 1e-20
    override_illconditioning .true.
  #  output dos -200 200  15000  0.02
  ################################################################################
  #
  #  FHI-aims code project
  # Volker Blum, Fritz Haber Institute Berlin, 2009
  #
  #  Suggested "tight" defaults for Ca atom (to be pasted into control.in file)
  #
  ################################################################################
    species        Ca
  #     global species definitions
      nucleus             20
      mass                40.078
  #
   pure_gauss .true.
  include_min_basis .false.
      l_hartree          6
  #
      cut_pot             5.0          1.0  1.0
      basis_dep_cutoff    1e-4
  #
      radial_base         47 7.0
      radial_multiplier  2
      angular_grids       specified
       division   0.5361  110
       division   0.7866  194
       division   0.9689  302
       division   1.0269  434
  #     division   1.2909  590
  #     division   1.3280  770
  #     division   1.4872  974
  #     outer_grid  974
        outer_grid  434
  ################################################################################
  #
  #  Definition of "minimal" basis
  #
  #  Note: Ca+ ionic basis functions perform better than Ca2+ ionic
  #  basis functions for the neutral Ca dimer. This is why they are used here.
  #
  ################################################################################
  #     valence basis states
      valence      4  s   2.
      valence      3  p   6.
  #     ion occupancy
      ion_occ      4  s   1.
      ion_occ      3  p   6.
  # Ca cc-pV5Z
   gaussian 0 22
  28249600.0000000            0.0000004
   4250190.0000000            0.0000033
    975014.0000000            0.0000171
    277446.0000000            0.0000723
     90454.7000000            0.0002652
     32515.9000000            0.0008748
     12610.6000000            0.0026499
      5190.7700000            0.0074845
      2242.3300000            0.0197309
      1011.5300000            0.0477980
       475.5470000            0.1035956
       232.0720000            0.1929302
       116.8740000            0.2862676
        60.3427000            0.2927849
        31.5244000            0.1631280
        16.0308000            0.0322169
         8.4599200            0.0005926
         4.5271800            0.0010479
         2.4185900           -0.0003838
         1.2512900            0.0001577
         0.6434300           -0.0001436
         0.3291800            0.0000577
   gaussian 0 22
  28249600.0000000           -0.0000001
   4250190.0000000           -0.0000010
    975014.0000000           -0.0000050
    277446.0000000           -0.0000210
     90454.7000000           -0.0000770
     32515.9000000           -0.0002543
     12610.6000000           -0.0007717
      5190.7700000           -0.0021908
      2242.3300000           -0.0058357
      1011.5300000           -0.0144687
       475.5470000           -0.0328038
       232.0720000           -0.0667443
       116.8740000           -0.1166867
        60.3427000           -0.1591970
        31.5244000           -0.1162065
        16.0308000            0.1054701
         8.4599200            0.4248347
         4.5271800            0.4577974
         2.4185900            0.1661997
         1.2512900            0.0146239
         0.6434300            0.0020465
         0.3291800            0.0001952
   gaussian 0 22
  28249600.0000000            0.0000000
   4250190.0000000            0.0000003
    975014.0000000            0.0000017
    277446.0000000            0.0000072
     90454.7000000            0.0000266
     32515.9000000            0.0000877
     12610.6000000            0.0002662
      5190.7700000            0.0007562
      2242.3300000            0.0020162
      1011.5300000            0.0050120
       475.5470000            0.0114149
       232.0720000            0.0234543
       116.8740000            0.0417378
        60.3427000            0.0589430
        31.5244000            0.0450342
        16.0308000           -0.0443762
         8.4599200           -0.2187545
         4.5271800           -0.3636304
         2.4185900           -0.1542207
         1.2512900            0.3523815
         0.6434300            0.6141210
         0.3291800            0.3003728
   gaussian 0 22
  28249600.0000000           -0.0000000
   4250190.0000000           -0.0000001
    975014.0000000           -0.0000004
    277446.0000000           -0.0000017
     90454.7000000           -0.0000063
     32515.9000000           -0.0000209
     12610.6000000           -0.0000636
      5190.7700000           -0.0001806
      2242.3300000           -0.0004816
      1011.5300000           -0.0011972
       475.5470000           -0.0027289
       232.0720000           -0.0056119
       116.8740000           -0.0100131
        60.3427000           -0.0141905
        31.5244000           -0.0109217
        16.0308000            0.0108634
         8.4599200            0.0550149
         4.5271800            0.0968821
         2.4185900            0.0394797
         1.2512900           -0.1086698
         0.6434300           -0.2272832
         0.3291800           -0.2570849
   gaussian 0 1 0.1423900
   gaussian 0 1 0.0781900
   gaussian 0 1 0.0376300
   gaussian 0 1 0.0182900
   gaussian 1 14
    406353.0000000            0.0000002
     13600.7000000            0.0000239
      3235.4700000            0.0002122
      1053.0500000            0.0012273
       403.5690000            0.0054528
       171.4900000            0.0196267
        78.2363000            0.0582799
        37.6065000            0.1395530
        18.7090000            0.2559256
         9.5004100            0.3399813
         4.9055700            0.2730477
         2.5267000            0.0964415
         1.2713900            0.0095523
         0.6260100            0.0006759
   gaussian 1 14
    406353.0000000           -0.0000001
     13600.7000000           -0.0000078
      3235.4700000           -0.0000691
      1053.0500000           -0.0004006
       403.5690000           -0.0017849
       171.4900000           -0.0064832
        78.2363000           -0.0195624
        37.6065000           -0.0482477
        18.7090000           -0.0912861
         9.5004100           -0.1284209
         4.9055700           -0.0995229
         2.5267000            0.0901238
         1.2713900            0.3551988
         0.6260100            0.4444889
   gaussian 1 14
    406353.0000000            0.0000000
     13600.7000000            0.0000016
      3235.4700000            0.0000144
      1053.0500000            0.0000835
       403.5690000            0.0003721
       171.4900000            0.0013533
        78.2363000            0.0040864
        37.6065000            0.0101107
        18.7090000            0.0191673
         9.5004100            0.0271613
         4.9055700            0.0208077
         2.5267000           -0.0230851
         1.2713900           -0.0855109
         0.6260100           -0.1179450
   gaussian 1 1 0.3009900
   gaussian 1 1 0.1176900
   gaussian 1 1 0.0511600
   gaussian 1 1 0.0214200
   gaussian 2 4
        39.5628000            0.0034460
        11.4373000            0.0213600
         3.9674300            0.0754480
         1.5247800            0.1715280
   gaussian 2 1 0.5904700
   gaussian 2 1 0.2191400
   gaussian 2 1 0.0795700
   gaussian 2 1 0.0283400
   gaussian 3 1 0.0860000
   gaussian 3 1 0.2580000
   gaussian 3 1 0.7741000
   gaussian 4 1 0.1012000
   gaussian 4 1 0.3023000
   gaussian 5 1 0.2534000
  
  -----------------------------------------------------------------------
  Completed first pass over input file control.in .
  -----------------------------------------------------------------------
  
  
  -----------------------------------------------------------------------
  Parsing geometry.in (first pass over file, find array dimensions only).
  The contents of geometry.in will be repeated verbatim below
  unless switched off by setting 'verbatim_writeout .false.' .
  in the first line of geometry.in .
  -----------------------------------------------------------------------
  
  # Geometry of Ca dimer
  atom         0.00000000        0.00000000        0.00000000  Ca
  atom         0.00000000        0.00000000        3.500  Ca
  
  -----------------------------------------------------------------------
  Completed first pass over input file geometry.in .
  -----------------------------------------------------------------------
  

  Basic array size parameters:
  | Number of species                 :        1
  | Number of atoms                   :        2
  | Max. basis fn. angular momentum   :        5
  | Max. atomic/ionic basis occupied n:        4
  | Max. number of basis fn. types    :        1
  | Max. radial fns per species/type  :       40
  | Max. logarithmic grid size        :     1376
  | Max. radial integration grid size :       95
  | Max. angular integration grid size:      434
  | Max. angular grid division number :        8
  | Radial grid for Hartree potential :     1376
  | Number of spin channels           :        1

------------------------------------------------------------
          Reading file control.in.
------------------------------------------------------------
  XC: Using PBE gradient-corrected functionals.
  Number of frequency points used for the self-energy calculation:     20
  Maximum frequency for the self-energy:        7000.00  Ha.
  Number of time points used for the self-energy calculation:     20
  Maximum time for the self-energy:        1000.00
  Spin treatment: No spin polarisation.
  Occupation type: Gaussian broadening, width =   0.100000E+00 eV.
  Using pulay charge density mixing.
  Charge density mixing - mixing parameter:     0.5000
  Pulay mixing - number of memorized iterations:   10
  Convergence accuracy of self-consistent charge density: 0.1000E-04
  Convergence accuracy of sum of eigenvalues: 0.1000E-02
  Convergence accuracy of total energy: 0.1000E-05
  Maximum number of s.-c. iterations  :   200
  Scalar relativistic treatment of kinetic energy: on-site free-atom approximation to ZORA.
  override_illconditioning: Explicitly overriding any built-in checks for an ill-conditioned overlap matrix.
  *** WARNING: If you use this flag, you should really know what you are doing.
  *** DO NOT keep this flag set by default in all your control.in files.
 
  Reading configuration options for species Ca                  .
  | Found nuclear charge :  20.0000
  | Found atomic mass :    40.0780000000000      amu
  | Found request to include pure gaussian fns. :     T
  | Found request to include minimal basis fns. :     F
  | Found l_max for Hartree potential  :   6
  | Found cutoff potl. onset [A], width [A], scale factor :    5.00000    1.00000    1.00000
  | Threshold for basis-dependent cutoff potential is   0.100000E-03
  | Found data for basic radial integration grid :    47 points, outermost radius =    7.000 A
  | Found multiplier for basic radial grid :   2
  | Found angular grid specification: user-specified.
  | Specified grid contains     5 separate shells.
  | Check grid settings after all constraints further below.
  | Found free-atom valence shell :  4 s   2.000
  | Found free-atom valence shell :  3 p   6.000
  | No ionic wave fns used. Skipping ion_occ.
  | No ionic wave fns used. Skipping ion_occ.
  | Found contracted cartesian Gaussian basis function :  L = 0 ,  22 elementary Gaussians:
  |   alpha = 0.282496E+08 weight = 0.400000E-06
  |   alpha = 0.425019E+07 weight = 0.330000E-05
  |   alpha = 0.975014E+06 weight = 0.171000E-04
  |   alpha = 0.277446E+06 weight = 0.723000E-04
  |   alpha = 0.904547E+05 weight = 0.265200E-03
  |   alpha = 0.325159E+05 weight = 0.874800E-03
  |   alpha = 0.126106E+05 weight = 0.264990E-02
  |   alpha = 0.519077E+04 weight = 0.748450E-02
  |   alpha = 0.224233E+04 weight = 0.197309E-01
  |   alpha = 0.101153E+04 weight = 0.477980E-01
  |   alpha = 0.475547E+03 weight = 0.103596E+00
  |   alpha = 0.232072E+03 weight = 0.192930E+00
  |   alpha = 0.116874E+03 weight = 0.286268E+00
  |   alpha = 0.603427E+02 weight = 0.292785E+00
  |   alpha = 0.315244E+02 weight = 0.163128E+00
  |   alpha = 0.160308E+02 weight = 0.322169E-01
  |   alpha = 0.845992E+01 weight = 0.592600E-03
  |   alpha = 0.452718E+01 weight = 0.104790E-02
  |   alpha = 0.241859E+01 weight = -.383800E-03
  |   alpha = 0.125129E+01 weight = 0.157700E-03
  |   alpha = 0.643430E+00 weight = -.143600E-03
  |   alpha = 0.329180E+00 weight = 0.577000E-04
  |   In terms of angular momentum, this radial function adds: 
  |     1 s-type basis function
  | Found contracted cartesian Gaussian basis function :  L = 0 ,  22 elementary Gaussians:
  |   alpha = 0.282496E+08 weight = -.100000E-06
  |   alpha = 0.425019E+07 weight = -.100000E-05
  |   alpha = 0.975014E+06 weight = -.500000E-05
  |   alpha = 0.277446E+06 weight = -.210000E-04
  |   alpha = 0.904547E+05 weight = -.770000E-04
  |   alpha = 0.325159E+05 weight = -.254300E-03
  |   alpha = 0.126106E+05 weight = -.771700E-03
  |   alpha = 0.519077E+04 weight = -.219080E-02
  |   alpha = 0.224233E+04 weight = -.583570E-02
  |   alpha = 0.101153E+04 weight = -.144687E-01
  |   alpha = 0.475547E+03 weight = -.328038E-01
  |   alpha = 0.232072E+03 weight = -.667443E-01
  |   alpha = 0.116874E+03 weight = -.116687E+00
  |   alpha = 0.603427E+02 weight = -.159197E+00
  |   alpha = 0.315244E+02 weight = -.116207E+00
  |   alpha = 0.160308E+02 weight = 0.105470E+00
  |   alpha = 0.845992E+01 weight = 0.424835E+00
  |   alpha = 0.452718E+01 weight = 0.457797E+00
  |   alpha = 0.241859E+01 weight = 0.166200E+00
  |   alpha = 0.125129E+01 weight = 0.146239E-01
  |   alpha = 0.643430E+00 weight = 0.204650E-02
  |   alpha = 0.329180E+00 weight = 0.195200E-03
  |   In terms of angular momentum, this radial function adds: 
  |     1 s-type basis function
  | Found contracted cartesian Gaussian basis function :  L = 0 ,  22 elementary Gaussians:
  |   alpha = 0.282496E+08 weight = 0.000000E+00
  |   alpha = 0.425019E+07 weight = 0.300000E-06
  |   alpha = 0.975014E+06 weight = 0.170000E-05
  |   alpha = 0.277446E+06 weight = 0.720000E-05
  |   alpha = 0.904547E+05 weight = 0.266000E-04
  |   alpha = 0.325159E+05 weight = 0.877000E-04
  |   alpha = 0.126106E+05 weight = 0.266200E-03
  |   alpha = 0.519077E+04 weight = 0.756200E-03
  |   alpha = 0.224233E+04 weight = 0.201620E-02
  |   alpha = 0.101153E+04 weight = 0.501200E-02
  |   alpha = 0.475547E+03 weight = 0.114149E-01
  |   alpha = 0.232072E+03 weight = 0.234543E-01
  |   alpha = 0.116874E+03 weight = 0.417378E-01
  |   alpha = 0.603427E+02 weight = 0.589430E-01
  |   alpha = 0.315244E+02 weight = 0.450342E-01
  |   alpha = 0.160308E+02 weight = -.443762E-01
  |   alpha = 0.845992E+01 weight = -.218754E+00
  |   alpha = 0.452718E+01 weight = -.363630E+00
  |   alpha = 0.241859E+01 weight = -.154221E+00
  |   alpha = 0.125129E+01 weight = 0.352382E+00
  |   alpha = 0.643430E+00 weight = 0.614121E+00
  |   alpha = 0.329180E+00 weight = 0.300373E+00
  |   In terms of angular momentum, this radial function adds: 
  |     1 s-type basis function
  | Found contracted cartesian Gaussian basis function :  L = 0 ,  22 elementary Gaussians:
  |   alpha = 0.282496E+08 weight = 0.000000E+00
  |   alpha = 0.425019E+07 weight = -.100000E-06
  |   alpha = 0.975014E+06 weight = -.400000E-06
  |   alpha = 0.277446E+06 weight = -.170000E-05
  |   alpha = 0.904547E+05 weight = -.630000E-05
  |   alpha = 0.325159E+05 weight = -.209000E-04
  |   alpha = 0.126106E+05 weight = -.636000E-04
  |   alpha = 0.519077E+04 weight = -.180600E-03
  |   alpha = 0.224233E+04 weight = -.481600E-03
  |   alpha = 0.101153E+04 weight = -.119720E-02
  |   alpha = 0.475547E+03 weight = -.272890E-02
  |   alpha = 0.232072E+03 weight = -.561190E-02
  |   alpha = 0.116874E+03 weight = -.100131E-01
  |   alpha = 0.603427E+02 weight = -.141905E-01
  |   alpha = 0.315244E+02 weight = -.109217E-01
  |   alpha = 0.160308E+02 weight = 0.108634E-01
  |   alpha = 0.845992E+01 weight = 0.550149E-01
  |   alpha = 0.452718E+01 weight = 0.968821E-01
  |   alpha = 0.241859E+01 weight = 0.394797E-01
  |   alpha = 0.125129E+01 weight = -.108670E+00
  |   alpha = 0.643430E+00 weight = -.227283E+00
  |   alpha = 0.329180E+00 weight = -.257085E+00
  |   In terms of angular momentum, this radial function adds: 
  |     1 s-type basis function
  | Found primitive cartesian Gaussian basis function :  0 0.142390E+00
  |   In terms of angular momentum, this radial function adds: 
  |     1 s-type basis function
  | Found primitive cartesian Gaussian basis function :  0 0.781900E-01
  |   In terms of angular momentum, this radial function adds: 
  |     1 s-type basis function
  | Found primitive cartesian Gaussian basis function :  0 0.376300E-01
  |   In terms of angular momentum, this radial function adds: 
  |     1 s-type basis function
  | Found primitive cartesian Gaussian basis function :  0 0.182900E-01
  |   In terms of angular momentum, this radial function adds: 
  |     1 s-type basis function
  | Found contracted cartesian Gaussian basis function :  L = 1 ,  14 elementary Gaussians:
  |   alpha = 0.406353E+06 weight = 0.200000E-06
  |   alpha = 0.136007E+05 weight = 0.239000E-04
  |   alpha = 0.323547E+04 weight = 0.212200E-03
  |   alpha = 0.105305E+04 weight = 0.122730E-02
  |   alpha = 0.403569E+03 weight = 0.545280E-02
  |   alpha = 0.171490E+03 weight = 0.196267E-01
  |   alpha = 0.782363E+02 weight = 0.582799E-01
  |   alpha = 0.376065E+02 weight = 0.139553E+00
  |   alpha = 0.187090E+02 weight = 0.255926E+00
  |   alpha = 0.950041E+01 weight = 0.339981E+00
  |   alpha = 0.490557E+01 weight = 0.273048E+00
  |   alpha = 0.252670E+01 weight = 0.964415E-01
  |   alpha = 0.127139E+01 weight = 0.955230E-02
  |   alpha = 0.626010E+00 weight = 0.675900E-03
  |   In terms of angular momentum, this radial function adds: 
  |     3 p-type basis functions
  | Found contracted cartesian Gaussian basis function :  L = 1 ,  14 elementary Gaussians:
  |   alpha = 0.406353E+06 weight = -.100000E-06
  |   alpha = 0.136007E+05 weight = -.780000E-05
  |   alpha = 0.323547E+04 weight = -.691000E-04
  |   alpha = 0.105305E+04 weight = -.400600E-03
  |   alpha = 0.403569E+03 weight = -.178490E-02
  |   alpha = 0.171490E+03 weight = -.648320E-02
  |   alpha = 0.782363E+02 weight = -.195624E-01
  |   alpha = 0.376065E+02 weight = -.482477E-01
  |   alpha = 0.187090E+02 weight = -.912861E-01
  |   alpha = 0.950041E+01 weight = -.128421E+00
  |   alpha = 0.490557E+01 weight = -.995229E-01
  |   alpha = 0.252670E+01 weight = 0.901238E-01
  |   alpha = 0.127139E+01 weight = 0.355199E+00
  |   alpha = 0.626010E+00 weight = 0.444489E+00
  |   In terms of angular momentum, this radial function adds: 
  |     3 p-type basis functions
  | Found contracted cartesian Gaussian basis function :  L = 1 ,  14 elementary Gaussians:
  |   alpha = 0.406353E+06 weight = 0.000000E+00
  |   alpha = 0.136007E+05 weight = 0.160000E-05
  |   alpha = 0.323547E+04 weight = 0.144000E-04
  |   alpha = 0.105305E+04 weight = 0.835000E-04
  |   alpha = 0.403569E+03 weight = 0.372100E-03
  |   alpha = 0.171490E+03 weight = 0.135330E-02
  |   alpha = 0.782363E+02 weight = 0.408640E-02
  |   alpha = 0.376065E+02 weight = 0.101107E-01
  |   alpha = 0.187090E+02 weight = 0.191673E-01
  |   alpha = 0.950041E+01 weight = 0.271613E-01
  |   alpha = 0.490557E+01 weight = 0.208077E-01
  |   alpha = 0.252670E+01 weight = -.230851E-01
  |   alpha = 0.127139E+01 weight = -.855109E-01
  |   alpha = 0.626010E+00 weight = -.117945E+00
  |   In terms of angular momentum, this radial function adds: 
  |     3 p-type basis functions
  | Found primitive cartesian Gaussian basis function :  1 0.300990E+00
  |   In terms of angular momentum, this radial function adds: 
  |     3 p-type basis functions
  | Found primitive cartesian Gaussian basis function :  1 0.117690E+00
  |   In terms of angular momentum, this radial function adds: 
  |     3 p-type basis functions
  | Found primitive cartesian Gaussian basis function :  1 0.511600E-01
  |   In terms of angular momentum, this radial function adds: 
  |     3 p-type basis functions
  | Found primitive cartesian Gaussian basis function :  1 0.214200E-01
  |   In terms of angular momentum, this radial function adds: 
  |     3 p-type basis functions
  | Found contracted cartesian Gaussian basis function :  L = 2 ,   4 elementary Gaussians:
  |   alpha = 0.395628E+02 weight = 0.344600E-02
  |   alpha = 0.114373E+02 weight = 0.213600E-01
  |   alpha = 0.396743E+01 weight = 0.754480E-01
  |   alpha = 0.152478E+01 weight = 0.171528E+00
  |   In terms of angular momentum, this radial function adds: 
  |     5 d-type basis functions
  | Found primitive cartesian Gaussian basis function :  2 0.590470E+00
  |   In terms of angular momentum, this radial function adds: 
  |     5 d-type basis functions
  | Found primitive cartesian Gaussian basis function :  2 0.219140E+00
  |   In terms of angular momentum, this radial function adds: 
  |     5 d-type basis functions
  | Found primitive cartesian Gaussian basis function :  2 0.795700E-01
  |   In terms of angular momentum, this radial function adds: 
  |     5 d-type basis functions
  | Found primitive cartesian Gaussian basis function :  2 0.283400E-01
  |   In terms of angular momentum, this radial function adds: 
  |     5 d-type basis functions
  | Found primitive cartesian Gaussian basis function :  3 0.860000E-01
  |   In terms of angular momentum, this radial function adds: 
  |     7 f-type basis functions
  | Found primitive cartesian Gaussian basis function :  3 0.258000E+00
  |   In terms of angular momentum, this radial function adds: 
  |     7 f-type basis functions
  | Found primitive cartesian Gaussian basis function :  3 0.774100E+00
  |   In terms of angular momentum, this radial function adds: 
  |     7 f-type basis functions
  | Found primitive cartesian Gaussian basis function :  4 0.101200E+00
  |   In terms of angular momentum, this radial function adds: 
  |     9 g-type basis functions
  | Found primitive cartesian Gaussian basis function :  4 0.302300E+00
  |   In terms of angular momentum, this radial function adds: 
  |     9 g-type basis functions
  | Found primitive cartesian Gaussian basis function :  5 0.253400E+00
  |   In terms of angular momentum, this radial function adds: 
  |    11 h-type basis functions
  Species Ca                  : Missing cutoff potential type.
  Defaulting to exp(1/x)/(1-x)^2 type cutoff potential.
  Species Ca: No 'logarithmic' tag. Using default grid for free atom:
  | Default logarithmic grid data [bohr] : 0.1000E-03 0.1000E+03 0.1012E+01
  Species Ca: On-site basis accuracy parameter (for Gram-Schmidt orthonormalisation) not specified.
  Using default value basis_acc =  0.1000000E-03.
  Species Ca                  : Using default innermost maximum threshold i_radial=  2 for radial functions.
  Species Ca                  : Standard DFT-LDA/GGA, but Gaussian basis functions encountered!
  Setting particularly large cutoff onset for free atom density.
  Nonetheless, verify explicitly that this is enough if you suspect any 
  integration inaccuracies.
  Default cutoff onset for free atom density etc. :  0.10000000E+02 AA.
  * Species Ca                  : Warning - free-atom cutoff radius not yet verified for Gaussians.
  Species Ca                  : Basic radial grid will be enhanced according to radial_multiplier =   2, to contain    95 grid points.
 
  Finished reading input file 'control.in'. Consistency checks are next.
 
  Target number of points in a grid batch is not set. Defaulting to  100
  Method for grid partitioning is not set. Defaulting to parallel hash+maxmin partitioning.
  Batch size limit is not set. Defaulting to    200
  By default, will store active basis functions for each batch.
  If in need of memory, prune_basis_once .false. can be used to disable this option.
  communication_type for Hartree potential was not specified.
  Defaulting to calc_hartree .
  Pulay mixer: Number of initial linear mixing iterations not set.
  Defaulting to    0 iterations.
  Work space size for distributed Hartree potential not set.
  Defaulting to   0.200000E+03 MB.
  Algorithm-dependent basis array size parameters:
  | n_max_pulay                         :       10
  Calculation of forces was not defined in control.in. No forces will be calculated.
  Geometry relaxation not requested: no relaxation will be performed.
  No accuracy limit for integral partition fn. given. Defaulting to 0.1000E-14.
  No threshold value for u(r) in integrations given. Defaulting to 0.1000E-05.
  No accuracy for occupation numbers given. Defaulting to 0.1000E-07.
  No threshold value for occupation numbers given. Defaulting to 0.0000E+00.
  No accuracy for fermi level given. Defaulting to 0.1000E-19.
  Maximum # of iterations to find E_F not set. Defaulting to  200.
  Preferred method for the eigenvalue solver ('KS_method') not specified in 'control.in'.
  Defaulting to serial version, 'lapack_fast'.
  Will not use alltoall communication since running on < 1024 CPUs.
  Threshold for basis singularities not set.
  Default threshold for basis singularities: 0.1000E-04
  partition_type (choice of integration weights) for integrals was not specified.
  | Using a version of the partition function of Stratmann and coworkers ('stratmann_smoother').
  | At each grid point, the set of atoms used to build the partition table is smoothly restricted to
  | only those atoms whose free-atom density would be non-zero at that grid point.
  Partitioning for Hartree potential was not defined. Using partition_type for integrals.
  | Adjusted default value of keyword multip_moments_threshold to:       0.10000000E-11
  | This value may affect high angular momentum components of the Hartree potential in periodic systems.
  No q(lm)/r^(l+1) cutoff set for long-range Hartree potential.
  | Using default value of  0.100000E-09 .
  | Verify using the multipole_threshold keyword.
  Defaulting to new monopole extrapolation.
  Density update method: automatic selection selected.
------------------------------------------------------------


------------------------------------------------------------
          Reading geometry description geometry.in.
------------------------------------------------------------
  Input structure read successfully.
  The structure contains        2 atoms,  and a total of         40.000 electrons.

  Input geometry:
  | No unit cell requested.
  | Atomic structure:
  |       Atom                x [A]            y [A]            z [A]
  |    1: Species Ca             0.000000         0.000000         0.000000
  |    2: Species Ca             0.000000         0.000000         3.500000
  |

  | The smallest distance between any two atoms is         3.50000000 AA.
  |
  | The first atom of this pair is atom number                      1 .
  | The second atom of this pair is atom number                     2 .

  Number of empty states per atom not set in control.in - providing a guess from actual geometry.
  | Total number of empty states used during s.c.f. cycle:        6
  If you use a very high smearing, use empty_states (per atom!) in control.in to increase this value.

  Structure-dependent array size parameters: 
  | Maximum number of distinct radial functions  :       26
  | Maximum number of basis functions            :      208
  | Number of Kohn-Sham states (occupied + empty):       26
------------------------------------------------------------

------------------------------------------------------------
          Preparing all fixed parts of the calculation.
------------------------------------------------------------
  Determining machine precision:
    2.225073858507201E-308
  Setting up grids for atomic and cluster calculations.

  Creating wave function, potential, and density for free atoms.

  Species: Ca

  List of occupied orbitals and eigenvalues:
    n    l              occ      energy [Ha]    energy [eV]
    1    0           2.0000      -145.834889     -3968.3692
    2    0           2.0000       -15.236399      -414.6035
    3    0           2.0000        -1.730577       -47.0914
    4    0           2.0000        -0.138403        -3.7661
    2    1           6.0000       -12.306983      -334.8900
    3    1           6.0000        -1.029197       -28.0059

  Creating fixed part of basis set: Ionic, confined, hydrogenic.
 
  Ca                   Gaussian:
 
  List of cartesian Gaussian basis orbitals: 
    L    l
    0    0
    0    0
    0    0
    0    0
    0    0
    0    0
    0    0
    0    0
    1    1
    1    1
    1    1
    1    1
    1    1
    1    1
    1    1
    2    2
    2    2
    2    2
    2    2
    2    2
    3    3
    3    3
    3    3
    4    4
    4    4
    5    5
 

  Adding cutoff potential to free-atom effective potential.
  Creating atomic-like basis functions for current effective potential.
  Assembling full basis from fixed parts.
  | Species Ca : gaussian orbital   0 s accepted.
  | Species Ca : gaussian orbital   0 s accepted.
  | Species Ca : gaussian orbital   0 s accepted.
  | Species Ca : gaussian orbital   0 s accepted.
  | Species Ca : gaussian orbital   0 s accepted.
  | Species Ca : gaussian orbital   0 s accepted.
  | Species Ca : gaussian orbital   0 s accepted.
  | Species Ca : gaussian orbital   0 s accepted.
  | Species Ca : gaussian orbital   1 p accepted.
  | Species Ca : gaussian orbital   1 p accepted.
  | Species Ca : gaussian orbital   1 p accepted.
  | Species Ca : gaussian orbital   1 p accepted.
  | Species Ca : gaussian orbital   1 p accepted.
  | Species Ca : gaussian orbital   1 p accepted.
  | Species Ca : gaussian orbital   1 p accepted.
  | Species Ca : gaussian orbital   2 d accepted.
  | Species Ca : gaussian orbital   2 d accepted.
  | Species Ca : gaussian orbital   2 d accepted.
  | Species Ca : gaussian orbital   2 d accepted.
  | Species Ca : gaussian orbital   2 d accepted.
  | Species Ca : gaussian orbital   3 f accepted.
  | Species Ca : gaussian orbital   3 f accepted.
  | Species Ca : gaussian orbital   3 f accepted.
  | Species Ca : gaussian orbital   4 g accepted.
  | Species Ca : gaussian orbital   4 g accepted.
  | Species Ca : gaussian orbital   5 h accepted.
 
  Basis size parameters after reduction:
  | Total number of radial functions:       26
  | Total number of basis functions :      208
 
  Testing on-site integration grid accuracy.
  |  Species  Function  <phi|h_atom|phi> (log., in eV)  <phi|h_atom|phi> (rad., in eV)
           1        1                -44.5036751082                -44.5036757658
           1        2                -18.4566694514                -18.4566699386
           1        3                 -5.4035227368                 -5.4035253783
           1        4                 -0.7861703109                 -0.7882811201
           1        5              -3960.0983871004              -3959.9080689991 ***
           1        6               -380.9938655580               -380.9738045928
           1        7                 -0.0173338792                 -0.0146975344
           1        8                 69.7557377303                 69.6637416264 ***
           1        9               -334.8381387311               -334.8380806494
           1       10                -26.6341822748                -26.6341696290
           1       11                 51.8214389574                 51.8224666467
           1       12                 42.4584286898                 42.4591686720
           1       13                 23.5903751286                 23.5907494247
           1       14                 13.3838858652                 13.3840580017
           1       15                  6.7979873062                  6.7972931500
           1       16                 17.9000237528                 17.9000238793
           1       17                 40.6078654064                 40.6078652866
           1       18                 26.1674311806                 26.1674307717
           1       19                 12.5210890195                 12.5210886683
           1       20                  5.3803902445                  5.3806562504
           1       21                  5.8486314155                  5.8486314327
           1       22                 22.1387608580                 22.1387606490
           1       23                 64.8322872415                 64.8322864773
           1       24                 10.8389987648                 10.8389987881
           1       25                 37.0704234248                 37.0704230153
           1       26                 36.2937480399                 36.2937476481
 * Note: Onsite integrals marked "***" above are less accurate than
 * onsite_accuracy_threshold =    0.03000 eV. Usually, this is harmless.
 * However, one integral did have a negative value. This integral could be important.
 * When in doubt, tighten the "radial" and/or "radial_multiplier" flags to check.

  Preparing densities etc. for the partition functions (integrals / Hartree potential).

  Preparations completed.
  max(cpu_time)          :      0.118 s.
  Wall clock time (cpu1) :      0.118 s.
------------------------------------------------------------

------------------------------------------------------------
          Begin self-consistency loop: Initialization.

          Date     :  20160215, Time     :  163430.318
------------------------------------------------------------

  Initializing index lists of integration centers etc. from given atomic structure:
  | Number of centers in hartree potential         :         2
  | Number of centers in hartree multipole         :         2
  | Number of centers in electron density summation:         2
  | Number of centers in basis integrals           :         2
  | Number of centers in integrals                 :         2
  Partitioning the integration grid into batches with parallel hashing+maxmin method.
  | Number of batches:      512
  | Maximal batch size:      99
  | Minimal batch size:      92
  | Average batch size:      95.289
  | Standard deviation of batch sizes:       1.641

  Integration load balanced across     1 MPI tasks.
  Work distribution over tasks is as follows:
  Task     0 has      48788 integration points.
  Initializing partition tables, free-atom densities, potentials, etc. across the integration grid (initialize_grid_storage).
  | initialize_grid_storage: Actual outermost partition radius vs. multipole_radius_free
  | (-- VB: in principle, multipole_radius_free should be larger, hence this output)
  | Species        1: Confinement radius =             10.999999999999998 AA, multipole_radius_free =             15.939493713349981 AA.
  | Species        1: outer_partition_radius set to             15.939493713349981 AA .
  | Original list of interatomic distances with           2 x          2 entries is created.
  | Net number of integration points:    48788
  | of which are non-zero points    :    48000
  Obtaining max. number of non-zero basis functions in each batch (get_n_compute_maxes).
  | Maximal number of non-zero basis functions:      208 in task     0
  Selecting the method for density update.
  Loop over occupied states selected for charge density update.
  Integrating Hamiltonian matrix: batch-based integration.
  Time summed over all CPUs for integration: real work        0.563 s, elapsed        0.563 s
  Integrating overlap matrix.
  Time summed over all CPUs for integration: real work        0.293 s, elapsed        0.293 s

  Updating Kohn-Sham eigenvalues, eigenvectors, occupation numbers, and Fermi level.
  Solving generalized eigenproblem
  Updating Kohn-Sham eigenvalues and eigenfunctions.
  Transforming overlap matrix and checking for singularities.
  Overlap matrix is nonsingular:
  | Lowest eigenvalue:  0.289497E-04
  Solving real generalised eigenvalue problem by standard LAPACK (fast)
  Determining occupation numbers for Kohn-Sham eigenstates.
  | Chemical potential (Fermi level) in eV                 : -.30465268E+01
  | Error in electron count due to remaining E_F inaccuracy: 0.61767480E-10
  | Maximum occupation number of highest empty state:  0.00E+00

  Writing Kohn-Sham eigenvalues.

  State    Occupation    Eigenvalue [Ha]    Eigenvalue [eV]
      1       2.00000        -145.773786        -3966.70654
      2       2.00000        -145.773768        -3966.70606
      3       2.00000         -15.230187         -414.43447
      4       2.00000         -15.230177         -414.43420
      5       2.00000         -12.307974         -334.91700
      6       2.00000         -12.307969         -334.91688
      7       2.00000         -12.307869         -334.91416
      8       2.00000         -12.307869         -334.91416
      9       2.00000         -12.307867         -334.91411
     10       2.00000         -12.307867         -334.91411
     11       2.00000          -1.732369          -47.14017
     12       2.00000          -1.732031          -47.13096
     13       2.00000          -1.035280          -28.17140
     14       2.00000          -1.031614          -28.07165
     15       2.00000          -1.031614          -28.07165
     16       2.00000          -1.031545          -28.06977
     17       2.00000          -1.031230          -28.06119
     18       2.00000          -1.031230          -28.06119
     19       2.00000          -0.182391           -4.96311
     20       1.97802          -0.117910           -3.20850
     21       0.01099          -0.105350           -2.86671
     22       0.01099          -0.105350           -2.86671
     23       0.00000          -0.098106           -2.66959
     24       0.00000          -0.080636           -2.19421
     25       0.00000          -0.080635           -2.19419
     26       0.00000          -0.069459           -1.89007

  Highest occupied state (VBM) at     -3.20850434 eV
  | Occupation number:      1.97801973

  Lowest unoccupied state (CBM) at    -2.86670853 eV
  | Occupation number:      0.01099008

  Overall HOMO-LUMO gap:      0.34179581 eV.
  Calculating total energy contributions from superposition of free atom densities.

  Total energy components:
  | Sum of eigenvalues            :        -811.62482147 Ha      -22085.43508689 eV
  | XC energy correction          :         -72.09157311 Ha       -1961.71151503 eV
  | XC potential correction       :          93.29369171 Ha        2538.65051641 eV
  | Free-atom electrostatic energy:        -573.06836751 Ha      -15593.98369298 eV
  | Hartree energy correction     :           0.00000000 Ha           0.00000000 eV
  | Entropy correction            :          -0.00015693 Ha          -0.00427030 eV
  | ---------------------------
  | Total energy                  :       -1363.49107038 Ha      -37102.47977849 eV
  | Total energy, T -> 0          :       -1363.49122731 Ha      -37102.48404879 eV  <-- do not rely on this value for anything but (periodic) metals
  | Electronic free energy        :       -1363.49138424 Ha      -37102.48831909 eV

  Derived energy quantities:
  | Kinetic energy                :        1373.48233754 Ha       37374.35599065 eV
  | Electrostatic energy          :       -2664.88183481 Ha      -72515.12425411 eV
  | Energy correction for multipole
  | error in Hartree potential    :           0.00000000 Ha           0.00000000 eV
  | Sum of eigenvalues per atom                           :      -11042.71754344 eV
  | Total energy (T->0) per atom                          :      -18551.24202439 eV  <-- do not rely on this value for anything but (periodic) metals
  | Electronic free energy per atom                       :      -18551.24415955 eV
  Initialize hartree_potential_storage
  Max. number of atoms included in rho_multipole:            2

  End scf initialization - timings             :  max(cpu_time)    wall_clock(cpu1)
  | Time for scf. initialization               :        1.025 s           1.027 s
  | Boundary condition initialization          :        0.000 s           0.000 s
  | Integration                                :        0.855 s           0.857 s
  | Solution of K.-S. eqns.                    :        0.037 s           0.037 s
  | Grid partitioning                          :        0.056 s           0.057 s
  | Preloading free-atom quantities on grid    :        0.008 s           0.008 s
  | Free-atom superposition energy             :        0.031 s           0.031 s
  | Total energy evaluation                    :        0.000 s           0.000 s
------------------------------------------------------------

------------------------------------------------------------
          Begin self-consistency iteration #    1

  Date     :  20160215, Time     :  163431.345
------------------------------------------------------------
  Evaluating new KS density.
  Integration grid: deviation in total charge (<rho> - N_e) =   6.192380E-11
  Pulay mixing of updated and previous charge densities.

  Evaluating partitioned Hartree potential by multipole expansion.
  | Analytical far-field extrapolation by fixed multipoles:
  | Hartree multipole sum: apparent total charge =   0.489868E-06
  Summing up the Hartree potential.
  Time summed over all CPUs for potential: real work        0.059 s, elapsed        0.059 s
  | RMS charge density error from multipole expansion :   0.243585E-03

  Integrating Hamiltonian matrix: batch-based integration.
  Time summed over all CPUs for integration: real work        0.563 s, elapsed        0.563 s

  Updating Kohn-Sham eigenvalues, eigenvectors, occupation numbers, and Fermi level.
  Solving generalized eigenproblem
  Updating Kohn-Sham eigenvalues and eigenfunctions.
  Solving real generalised eigenvalue problem by standard LAPACK (fast)
  Determining occupation numbers for Kohn-Sham eigenstates.
  | Chemical potential (Fermi level) in eV                 : -.27737203E+01
  | Error in electron count due to remaining E_F inaccuracy: 0.63220540E-09
  | Maximum occupation number of highest empty state:  0.00E+00

  Writing Kohn-Sham eigenvalues.

  State    Occupation    Eigenvalue [Ha]    Eigenvalue [eV]
      1       2.00000        -145.879207        -3969.57518
      2       2.00000        -145.879189        -3969.57469
      3       2.00000         -15.230089         -414.43180
      4       2.00000         -15.230079         -414.43153
      5       2.00000         -12.311391         -335.00999
      6       2.00000         -12.311391         -335.00999
      7       2.00000         -12.311389         -335.00994
      8       2.00000         -12.311389         -335.00994
      9       2.00000         -12.310790         -334.99363
     10       2.00000         -12.310786         -334.99352
     11       2.00000          -1.715561          -46.68279
     12       2.00000          -1.715238          -46.67400
     13       2.00000          -1.016437          -27.65866
     14       2.00000          -1.016301          -27.65495
     15       2.00000          -1.016301          -27.65495
     16       2.00000          -1.015927          -27.64478
     17       2.00000          -1.015927          -27.64478
     18       2.00000          -1.012774          -27.55899
     19       2.00000          -0.169249           -4.60550
     20       1.99998          -0.113005           -3.07502
     21       0.00001          -0.090464           -2.46164
     22       0.00001          -0.090464           -2.46164
     23       0.00000          -0.083314           -2.26710
     24       0.00000          -0.068733           -1.87031
     25       0.00000          -0.068732           -1.87029
     26       0.00000          -0.057820           -1.57337

  Highest occupied state (VBM) at     -3.07502111 eV
  | Occupation number:      1.99997965

  Lowest unoccupied state (CBM) at    -2.46164332 eV
  | Occupation number:      0.00001017

  Overall HOMO-LUMO gap:      0.61337779 eV.

  Total energy components:
  | Sum of eigenvalues            :        -811.78483416 Ha      -22089.78925363 eV
  | XC energy correction          :         -71.91482737 Ha       -1956.90201878 eV
  | XC potential correction       :          93.07184691 Ha        2532.61381243 eV
  | Free-atom electrostatic energy:        -573.06836751 Ha      -15593.98369298 eV
  | Hartree energy correction     :           0.21059700 Ha           5.73063593 eV
  | Entropy correction            :          -0.00000024 Ha          -0.00000654 eV
  | ---------------------------
  | Total energy                  :       -1363.48558512 Ha      -37102.33051703 eV
  | Total energy, T -> 0          :       -1363.48558537 Ha      -37102.33052358 eV  <-- do not rely on this value for anything but (periodic) metals
  | Electronic free energy        :       -1363.48558561 Ha      -37102.33053012 eV

  Derived energy quantities:
  | Kinetic energy                :        1359.58454838 Ha       36996.17790611 eV
  | Electrostatic energy          :       -2651.15530613 Ha      -72141.60640436 eV
  | Energy correction for multipole
  | error in Hartree potential    :           0.00000508 Ha           0.00013814 eV
  | Sum of eigenvalues per atom                           :      -11044.89462682 eV
  | Total energy (T->0) per atom                          :      -18551.16526179 eV  <-- do not rely on this value for anything but (periodic) metals
  | Electronic free energy per atom                       :      -18551.16526506 eV

  Self-consistency convergence accuracy:
  | Change of charge density      :  0.1373E+01
  | Change of sum of eigenvalues  : -0.4354E+01 eV
  | Change of total energy        :  0.1493E+00 eV

  End self-consistency iteration #     1       :  max(cpu_time)    wall_clock(cpu1)
  | Time for this iteration                    :        1.060 s           1.061 s
  | Charge density update                      :        0.419 s           0.420 s
  | Density mixing                             :        0.003 s           0.003 s
  | Hartree multipole update                   :        0.005 s           0.005 s
  | Hartree multipole summation                :        0.060 s           0.059 s
  | Integration                                :        0.562 s           0.564 s
  | Solution of K.-S. eqns.                    :        0.009 s           0.009 s
  | Total energy evaluation                    :        0.000 s           0.000 s
------------------------------------------------------------

------------------------------------------------------------
          Begin self-consistency iteration #    2

  Date     :  20160215, Time     :  163432.406
------------------------------------------------------------
  Evaluating new KS density.
  Integration grid: deviation in total charge (<rho> - N_e) =   6.321130E-10
  Pulay mixing of updated and previous charge densities.

  Evaluating partitioned Hartree potential by multipole expansion.
  | Analytical far-field extrapolation by fixed multipoles:
  | Hartree multipole sum: apparent total charge =   0.100667E-04
  Summing up the Hartree potential.
  Time summed over all CPUs for potential: real work        0.059 s, elapsed        0.059 s
  | RMS charge density error from multipole expansion :   0.351418E-03

  Integrating Hamiltonian matrix: batch-based integration.
  Time summed over all CPUs for integration: real work        0.563 s, elapsed        0.563 s

  Updating Kohn-Sham eigenvalues, eigenvectors, occupation numbers, and Fermi level.
  Solving generalized eigenproblem
  Updating Kohn-Sham eigenvalues and eigenfunctions.
  Solving real generalised eigenvalue problem by standard LAPACK (fast)
  Determining occupation numbers for Kohn-Sham eigenstates.
  | Chemical potential (Fermi level) in eV                 : -.29056108E+01
  | Error in electron count due to remaining E_F inaccuracy: -.30411229E-10
  | Maximum occupation number of highest empty state:  0.00E+00

  Highest occupied state (VBM) at     -3.13922050 eV
  | Occupation number:      1.99904596

  Lowest unoccupied state (CBM) at    -2.65859446 eV
  | Occupation number:      0.00047702

  Overall HOMO-LUMO gap:      0.48062604 eV.

  Total energy components:
  | Sum of eigenvalues            :        -812.96912821 Ha      -22122.01553424 eV
  | XC energy correction          :         -71.70774202 Ha       -1951.26693961 eV
  | XC potential correction       :          92.80974348 Ha        2525.48161519 eV
  | Free-atom electrostatic energy:        -573.06836751 Ha      -15593.98369298 eV
  | Hartree energy correction     :           1.45025336 Ha          39.46340177 eV
  | Entropy correction            :          -0.00000906 Ha          -0.00024663 eV
  | ---------------------------
  | Total energy                  :       -1363.48524089 Ha      -37102.32114988 eV
  | Total energy, T -> 0          :       -1363.48524995 Ha      -37102.32139651 eV  <-- do not rely on this value for anything but (periodic) metals
  | Electronic free energy        :       -1363.48525902 Ha      -37102.32164315 eV

  Derived energy quantities:
  | Kinetic energy                :        1345.70627261 Ha       36618.53080799 eV
  | Electrostatic energy          :       -2637.48377148 Ha      -71769.58501825 eV
  | Energy correction for multipole
  | error in Hartree potential    :           0.00005743 Ha           0.00156283 eV
  | Sum of eigenvalues per atom                           :      -11061.00776712 eV
  | Total energy (T->0) per atom                          :      -18551.16069826 eV  <-- do not rely on this value for anything but (periodic) metals
  | Electronic free energy per atom                       :      -18551.16082157 eV

  Self-consistency convergence accuracy:
  | Change of charge density      :  0.6852E+00
  | Change of sum of eigenvalues  : -0.3223E+02 eV
  | Change of total energy        :  0.9367E-02 eV

  End self-consistency iteration #     2       :  max(cpu_time)    wall_clock(cpu1)
  | Time for this iteration                    :        1.059 s           1.061 s
  | Charge density update                      :        0.418 s           0.419 s
  | Density mixing                             :        0.005 s           0.005 s
  | Hartree multipole update                   :        0.005 s           0.005 s
  | Hartree multipole summation                :        0.059 s           0.059 s
  | Integration                                :        0.563 s           0.564 s
  | Solution of K.-S. eqns.                    :        0.009 s           0.009 s
  | Total energy evaluation                    :        0.000 s           0.000 s
------------------------------------------------------------

------------------------------------------------------------
          Begin self-consistency iteration #    3

  Date     :  20160215, Time     :  163433.468
------------------------------------------------------------
  Evaluating new KS density.
  Integration grid: deviation in total charge (<rho> - N_e) =  -3.032596E-11
  Pulay mixing of updated and previous charge densities.

  Evaluating partitioned Hartree potential by multipole expansion.
  | Analytical far-field extrapolation by fixed multipoles:
  | Hartree multipole sum: apparent total charge =   0.868721E-05
  Summing up the Hartree potential.
  Time summed over all CPUs for potential: real work        0.059 s, elapsed        0.059 s
  | RMS charge density error from multipole expansion :   0.394970E-03

  Integrating Hamiltonian matrix: batch-based integration.
  Time summed over all CPUs for integration: real work        0.564 s, elapsed        0.564 s

  Updating Kohn-Sham eigenvalues, eigenvectors, occupation numbers, and Fermi level.
  Solving generalized eigenproblem
  Updating Kohn-Sham eigenvalues and eigenfunctions.
  Solving real generalised eigenvalue problem by standard LAPACK (fast)
  Determining occupation numbers for Kohn-Sham eigenstates.
  | Chemical potential (Fermi level) in eV                 : -.28233596E+01
  | Error in electron count due to remaining E_F inaccuracy: 0.70578210E-10
  | Maximum occupation number of highest empty state:  0.00E+00

  Highest occupied state (VBM) at     -3.10812841 eV
  | Occupation number:      1.99994356

  Lowest unoccupied state (CBM) at    -2.52726636 eV
  | Occupation number:      0.00002822

  Overall HOMO-LUMO gap:      0.58086205 eV.

  Total energy components:
  | Sum of eigenvalues            :        -812.68854570 Ha      -22114.38049572 eV
  | XC energy correction          :         -71.72155693 Ha       -1951.64286250 eV
  | XC potential correction       :          92.82791396 Ha        2525.97605921 eV
  | Free-atom electrostatic energy:        -573.06836751 Ha      -15593.98369298 eV
  | Hartree energy correction     :           1.16600949 Ha          31.72873248 eV
  | Entropy correction            :          -0.00000063 Ha          -0.00001727 eV
  | ---------------------------
  | Total energy                  :       -1363.48454668 Ha      -37102.30225952 eV
  | Total energy, T -> 0          :       -1363.48454731 Ha      -37102.30227679 eV  <-- do not rely on this value for anything but (periodic) metals
  | Electronic free energy        :       -1363.48454795 Ha      -37102.30229406 eV

  Derived energy quantities:
  | Kinetic energy                :        1345.85896130 Ha       36622.68567860 eV
  | Electrostatic energy          :       -2637.62195105 Ha      -71773.34507561 eV
  | Energy correction for multipole
  | error in Hartree potential    :           0.00002663 Ha           0.00072453 eV
  | Sum of eigenvalues per atom                           :      -11057.19024786 eV
  | Total energy (T->0) per atom                          :      -18551.15113839 eV  <-- do not rely on this value for anything but (periodic) metals
  | Electronic free energy per atom                       :      -18551.15114703 eV

  Self-consistency convergence accuracy:
  | Change of charge density      :  0.2234E-01
  | Change of sum of eigenvalues  :  0.7635E+01 eV
  | Change of total energy        :  0.1889E-01 eV

  End self-consistency iteration #     3       :  max(cpu_time)    wall_clock(cpu1)
  | Time for this iteration                    :        1.059 s           1.060 s
  | Charge density update                      :        0.416 s           0.416 s
  | Density mixing                             :        0.005 s           0.005 s
  | Hartree multipole update                   :        0.005 s           0.005 s
  | Hartree multipole summation                :        0.059 s           0.059 s
  | Integration                                :        0.563 s           0.564 s
  | Solution of K.-S. eqns.                    :        0.009 s           0.010 s
  | Total energy evaluation                    :        0.000 s           0.000 s
------------------------------------------------------------

------------------------------------------------------------
          Begin self-consistency iteration #    4

  Date     :  20160215, Time     :  163434.528
------------------------------------------------------------
  Evaluating new KS density.
  Integration grid: deviation in total charge (<rho> - N_e) =   7.079137E-11
  Pulay mixing of updated and previous charge densities.

  Evaluating partitioned Hartree potential by multipole expansion.
  | Analytical far-field extrapolation by fixed multipoles:
  | Hartree multipole sum: apparent total charge =   0.877577E-05
  Summing up the Hartree potential.
  Time summed over all CPUs for potential: real work        0.059 s, elapsed        0.059 s
  | RMS charge density error from multipole expansion :   0.407709E-03

  Integrating Hamiltonian matrix: batch-based integration.
  Time summed over all CPUs for integration: real work        0.566 s, elapsed        0.566 s

  Updating Kohn-Sham eigenvalues, eigenvectors, occupation numbers, and Fermi level.
  Solving generalized eigenproblem
  Updating Kohn-Sham eigenvalues and eigenfunctions.
  Solving real generalised eigenvalue problem by standard LAPACK (fast)
  Determining occupation numbers for Kohn-Sham eigenstates.
  | Chemical potential (Fermi level) in eV                 : -.28248491E+01
  | Error in electron count due to remaining E_F inaccuracy: 0.41069370E-11
  | Maximum occupation number of highest empty state:  0.00E+00

  Highest occupied state (VBM) at     -3.11283058 eV
  | Occupation number:      1.99995352

  Lowest unoccupied state (CBM) at    -2.52565366 eV
  | Occupation number:      0.00002324

  Overall HOMO-LUMO gap:      0.58717692 eV.

  Total energy components:
  | Sum of eigenvalues            :        -812.63296982 Ha      -22112.86819911 eV
  | XC energy correction          :         -71.72720089 Ha       -1951.79644248 eV
  | XC potential correction       :          92.83531235 Ha        2526.17737942 eV
  | Free-atom electrostatic energy:        -573.06836751 Ha      -15593.98369298 eV
  | Hartree energy correction     :           1.10868524 Ha          30.16886031 eV
  | Entropy correction            :          -0.00000053 Ha          -0.00001436 eV
  | ---------------------------
  | Total energy                  :       -1363.48454063 Ha      -37102.30209485 eV
  | Total energy, T -> 0          :       -1363.48454116 Ha      -37102.30210921 eV  <-- do not rely on this value for anything but (periodic) metals
  | Electronic free energy        :       -1363.48454168 Ha      -37102.30212358 eV

  Derived energy quantities:
  | Kinetic energy                :        1345.96410005 Ha       36625.54664976 eV
  | Electrostatic energy          :       -2637.72143979 Ha      -71776.05230213 eV
  | Energy correction for multipole
  | error in Hartree potential    :           0.00001664 Ha           0.00045270 eV
  | Sum of eigenvalues per atom                           :      -11056.43409956 eV
  | Total energy (T->0) per atom                          :      -18551.15105461 eV  <-- do not rely on this value for anything but (periodic) metals
  | Electronic free energy per atom                       :      -18551.15106179 eV

  Self-consistency convergence accuracy:
  | Change of charge density      :  0.5375E-02
  | Change of sum of eigenvalues  :  0.1512E+01 eV
  | Change of total energy        :  0.1647E-03 eV

  End self-consistency iteration #     4       :  max(cpu_time)    wall_clock(cpu1)
  | Time for this iteration                    :        1.062 s           1.063 s
  | Charge density update                      :        0.416 s           0.416 s
  | Density mixing                             :        0.006 s           0.006 s
  | Hartree multipole update                   :        0.005 s           0.005 s
  | Hartree multipole summation                :        0.060 s           0.060 s
  | Integration                                :        0.566 s           0.567 s
  | Solution of K.-S. eqns.                    :        0.009 s           0.009 s
  | Total energy evaluation                    :        0.000 s           0.000 s
------------------------------------------------------------

------------------------------------------------------------
          Begin self-consistency iteration #    5

  Date     :  20160215, Time     :  163435.591
------------------------------------------------------------
  Evaluating new KS density.
  Integration grid: deviation in total charge (<rho> - N_e) =   3.964828E-12
  Pulay mixing of updated and previous charge densities.

  Evaluating partitioned Hartree potential by multipole expansion.
  | Analytical far-field extrapolation by fixed multipoles:
  | Hartree multipole sum: apparent total charge =   0.870881E-05
  Summing up the Hartree potential.
  Time summed over all CPUs for potential: real work        0.059 s, elapsed        0.059 s
  | RMS charge density error from multipole expansion :   0.411160E-03

  Integrating Hamiltonian matrix: batch-based integration.
  Time summed over all CPUs for integration: real work        0.562 s, elapsed        0.562 s

  Updating Kohn-Sham eigenvalues, eigenvectors, occupation numbers, and Fermi level.
  Solving generalized eigenproblem
  Updating Kohn-Sham eigenvalues and eigenfunctions.
  Solving real generalised eigenvalue problem by standard LAPACK (fast)
  Determining occupation numbers for Kohn-Sham eigenstates.
  | Chemical potential (Fermi level) in eV                 : -.28258357E+01
  | Error in electron count due to remaining E_F inaccuracy: 0.10821566E-10
  | Maximum occupation number of highest empty state:  0.00E+00

  Highest occupied state (VBM) at     -3.11328655 eV
  | Occupation number:      1.99995200

  Lowest unoccupied state (CBM) at    -2.52715275 eV
  | Occupation number:      0.00002400

  Overall HOMO-LUMO gap:      0.58613379 eV.

  Total energy components:
  | Sum of eigenvalues            :        -812.63606308 Ha      -22112.95237113 eV
  | XC energy correction          :         -71.72722665 Ha       -1951.79714363 eV
  | XC potential correction       :          92.83534223 Ha        2526.17819273 eV
  | Free-atom electrostatic energy:        -573.06836751 Ha      -15593.98369298 eV
  | Hartree energy correction     :           1.11177445 Ha          30.25292193 eV
  | Entropy correction            :          -0.00000054 Ha          -0.00001481 eV
  | ---------------------------
  | Total energy                  :       -1363.48454056 Ha      -37102.30209308 eV
  | Total energy, T -> 0          :       -1363.48454111 Ha      -37102.30210789 eV  <-- do not rely on this value for anything but (periodic) metals
  | Electronic free energy        :       -1363.48454165 Ha      -37102.30212270 eV

  Derived energy quantities:
  | Kinetic energy                :        1345.96699042 Ha       36625.62530075 eV
  | Electrostatic energy          :       -2637.72430433 Ha      -71776.13025020 eV
  | Energy correction for multipole
  | error in Hartree potential    :           0.00001750 Ha           0.00047630 eV
  | Sum of eigenvalues per atom                           :      -11056.47618557 eV
  | Total energy (T->0) per atom                          :      -18551.15105394 eV  <-- do not rely on this value for anything but (periodic) metals
  | Electronic free energy per atom                       :      -18551.15106135 eV

  Self-consistency convergence accuracy:
  | Change of charge density      :  0.6823E-03
  | Change of sum of eigenvalues  : -0.8417E-01 eV
  | Change of total energy        :  0.1770E-05 eV

  End self-consistency iteration #     5       :  max(cpu_time)    wall_clock(cpu1)
  | Time for this iteration                    :        1.057 s           1.060 s
  | Charge density update                      :        0.415 s           0.416 s
  | Density mixing                             :        0.007 s           0.007 s
  | Hartree multipole update                   :        0.005 s           0.005 s
  | Hartree multipole summation                :        0.059 s           0.060 s
  | Integration                                :        0.562 s           0.562 s
  | Solution of K.-S. eqns.                    :        0.009 s           0.009 s
  | Total energy evaluation                    :        0.000 s           0.001 s
------------------------------------------------------------

------------------------------------------------------------
          Begin self-consistency iteration #    6

  Date     :  20160215, Time     :  163436.651
------------------------------------------------------------
  Evaluating new KS density.
  Integration grid: deviation in total charge (<rho> - N_e) =   1.037392E-11
  Pulay mixing of updated and previous charge densities.

  Evaluating partitioned Hartree potential by multipole expansion.
  | Analytical far-field extrapolation by fixed multipoles:
  | Hartree multipole sum: apparent total charge =   0.866142E-05
  Summing up the Hartree potential.
  Time summed over all CPUs for potential: real work        0.058 s, elapsed        0.058 s
  | RMS charge density error from multipole expansion :   0.413386E-03

  Integrating Hamiltonian matrix: batch-based integration.
  Time summed over all CPUs for integration: real work        0.562 s, elapsed        0.562 s

  Updating Kohn-Sham eigenvalues, eigenvectors, occupation numbers, and Fermi level.
  Solving generalized eigenproblem
  Updating Kohn-Sham eigenvalues and eigenfunctions.
  Solving real generalised eigenvalue problem by standard LAPACK (fast)
  Determining occupation numbers for Kohn-Sham eigenstates.
  | Chemical potential (Fermi level) in eV                 : -.28259623E+01
  | Error in electron count due to remaining E_F inaccuracy: 0.23781865E-10
  | Maximum occupation number of highest empty state:  0.00E+00

  Highest occupied state (VBM) at     -3.11340094 eV
  | Occupation number:      1.99995197

  Lowest unoccupied state (CBM) at    -2.52729113 eV
  | Occupation number:      0.00002402

  Overall HOMO-LUMO gap:      0.58610982 eV.

  Total energy components:
  | Sum of eigenvalues            :        -812.63661545 Ha      -22112.96740189 eV
  | XC energy correction          :         -71.72728130 Ha       -1951.79863073 eV
  | XC potential correction       :          92.83541107 Ha        2526.18006580 eV
  | Free-atom electrostatic energy:        -573.06836751 Ha      -15593.98369298 eV
  | Hartree energy correction     :           1.11231261 Ha          30.26756604 eV
  | Entropy correction            :          -0.00000054 Ha          -0.00001482 eV
  | ---------------------------
  | Total energy                  :       -1363.48454059 Ha      -37102.30209377 eV
  | Total energy, T -> 0          :       -1363.48454113 Ha      -37102.30210859 eV  <-- do not rely on this value for anything but (periodic) metals
  | Electronic free energy        :       -1363.48454168 Ha      -37102.30212341 eV

  Derived energy quantities:
  | Kinetic energy                :        1345.96943554 Ha       36625.69183564 eV
  | Electrostatic energy          :       -2637.72669482 Ha      -71776.19529868 eV
  | Energy correction for multipole
  | error in Hartree potential    :           0.00001837 Ha           0.00050000 eV
  | Sum of eigenvalues per atom                           :      -11056.48370095 eV
  | Total energy (T->0) per atom                          :      -18551.15105429 eV  <-- do not rely on this value for anything but (periodic) metals
  | Electronic free energy per atom                       :      -18551.15106170 eV

  Self-consistency convergence accuracy:
  | Change of charge density      :  0.1686E-03
  | Change of sum of eigenvalues  : -0.1503E-01 eV
  | Change of total energy        : -0.6881E-06 eV

  End self-consistency iteration #     6       :  max(cpu_time)    wall_clock(cpu1)
  | Time for this iteration                    :        1.058 s           1.059 s
  | Charge density update                      :        0.415 s           0.416 s
  | Density mixing                             :        0.007 s           0.007 s
  | Hartree multipole update                   :        0.005 s           0.005 s
  | Hartree multipole summation                :        0.059 s           0.059 s
  | Integration                                :        0.562 s           0.563 s
  | Solution of K.-S. eqns.                    :        0.009 s           0.009 s
  | Total energy evaluation                    :        0.000 s           0.000 s
------------------------------------------------------------

------------------------------------------------------------
          Begin self-consistency iteration #    7

  Date     :  20160215, Time     :  163437.710
------------------------------------------------------------
  Evaluating new KS density.
  Integration grid: deviation in total charge (<rho> - N_e) =   2.334843E-11
  Pulay mixing of updated and previous charge densities.

  Evaluating partitioned Hartree potential by multipole expansion.
  | Analytical far-field extrapolation by fixed multipoles:
  | Hartree multipole sum: apparent total charge =   0.864554E-05
  Summing up the Hartree potential.
  Time summed over all CPUs for potential: real work        0.058 s, elapsed        0.058 s
  | RMS charge density error from multipole expansion :   0.414092E-03

  Integrating Hamiltonian matrix: batch-based integration.
  Time summed over all CPUs for integration: real work        0.562 s, elapsed        0.562 s

  Updating Kohn-Sham eigenvalues, eigenvectors, occupation numbers, and Fermi level.
  Solving generalized eigenproblem
  Updating Kohn-Sham eigenvalues and eigenfunctions.
  Solving real generalised eigenvalue problem by standard LAPACK (fast)
  Determining occupation numbers for Kohn-Sham eigenstates.
  | Chemical potential (Fermi level) in eV                 : -.28258897E+01
  | Error in electron count due to remaining E_F inaccuracy: 0.26915359E-10
  | Maximum occupation number of highest empty state:  0.00E+00

  Highest occupied state (VBM) at     -3.11338628 eV
  | Occupation number:      1.99995214

  Lowest unoccupied state (CBM) at    -2.52716259 eV
  | Occupation number:      0.00002393

  Overall HOMO-LUMO gap:      0.58622369 eV.

  Total energy components:
  | Sum of eigenvalues            :        -812.63646555 Ha      -22112.96332271 eV
  | XC energy correction          :         -71.72729179 Ha       -1951.79891604 eV
  | XC potential correction       :          92.83542440 Ha        2526.18042870 eV
  | Free-atom electrostatic energy:        -573.06836751 Ha      -15593.98369298 eV
  | Hartree energy correction     :           1.11215984 Ha          30.26340905 eV
  | Entropy correction            :          -0.00000054 Ha          -0.00001477 eV
  | ---------------------------
  | Total energy                  :       -1363.48454060 Ha      -37102.30209400 eV
  | Total energy, T -> 0          :       -1363.48454114 Ha      -37102.30210877 eV  <-- do not rely on this value for anything but (periodic) metals
  | Electronic free energy        :       -1363.48454168 Ha      -37102.30212354 eV

  Derived energy quantities:
  | Kinetic energy                :        1345.96935277 Ha       36625.68958337 eV
  | Electrostatic energy          :       -2637.72660157 Ha      -71776.19276132 eV
  | Energy correction for multipole
  | error in Hartree potential    :           0.00001890 Ha           0.00051422 eV
  | Sum of eigenvalues per atom                           :      -11056.48166135 eV
  | Total energy (T->0) per atom                          :      -18551.15105438 eV  <-- do not rely on this value for anything but (periodic) metals
  | Electronic free energy per atom                       :      -18551.15106177 eV

  Self-consistency convergence accuracy:
  | Change of charge density      :  0.3172E-04
  | Change of sum of eigenvalues  :  0.4079E-02 eV
  | Change of total energy        : -0.2284E-06 eV

  End self-consistency iteration #     7       :  max(cpu_time)    wall_clock(cpu1)
  | Time for this iteration                    :        1.059 s           1.061 s
  | Charge density update                      :        0.415 s           0.416 s
  | Density mixing                             :        0.008 s           0.008 s
  | Hartree multipole update                   :        0.006 s           0.006 s
  | Hartree multipole summation                :        0.059 s           0.059 s
  | Integration                                :        0.562 s           0.562 s
  | Solution of K.-S. eqns.                    :        0.009 s           0.010 s
  | Total energy evaluation                    :        0.000 s           0.000 s
------------------------------------------------------------

------------------------------------------------------------
          Begin self-consistency iteration #    8

  Date     :  20160215, Time     :  163438.771
------------------------------------------------------------
  Evaluating new KS density.
  Integration grid: deviation in total charge (<rho> - N_e) =   2.716405E-11
  Pulay mixing of updated and previous charge densities.

  Evaluating partitioned Hartree potential by multipole expansion.
  | Analytical far-field extrapolation by fixed multipoles:
  | Hartree multipole sum: apparent total charge =   0.864434E-05
  Summing up the Hartree potential.
  Time summed over all CPUs for potential: real work        0.059 s, elapsed        0.059 s
  | RMS charge density error from multipole expansion :   0.414225E-03

  Integrating Hamiltonian matrix: batch-based integration.
  Time summed over all CPUs for integration: real work        0.563 s, elapsed        0.563 s

  Updating Kohn-Sham eigenvalues, eigenvectors, occupation numbers, and Fermi level.
  Solving generalized eigenproblem
  Updating Kohn-Sham eigenvalues and eigenfunctions.
  Solving real generalised eigenvalue problem by standard LAPACK (fast)
  Determining occupation numbers for Kohn-Sham eigenstates.
  | Chemical potential (Fermi level) in eV                 : -.28258954E+01
  | Error in electron count due to remaining E_F inaccuracy: 0.26936675E-10
  | Maximum occupation number of highest empty state:  0.00E+00

  Highest occupied state (VBM) at     -3.11340074 eV
  | Occupation number:      1.99995216

  Lowest unoccupied state (CBM) at    -2.52715979 eV
  | Occupation number:      0.00002392

  Overall HOMO-LUMO gap:      0.58624095 eV.

  Total energy components:
  | Sum of eigenvalues            :        -812.63644290 Ha      -22112.96270646 eV
  | XC energy correction          :         -71.72729380 Ha       -1951.79897085 eV
  | XC potential correction       :          92.83542703 Ha        2526.18050000 eV
  | Free-atom electrostatic energy:        -573.06836751 Ha      -15593.98369298 eV
  | Hartree energy correction     :           1.11213659 Ha          30.26277629 eV
  | Entropy correction            :          -0.00000054 Ha          -0.00001476 eV
  | ---------------------------
  | Total energy                  :       -1363.48454060 Ha      -37102.30209401 eV
  | Total energy, T -> 0          :       -1363.48454114 Ha      -37102.30210878 eV  <-- do not rely on this value for anything but (periodic) metals
  | Electronic free energy        :       -1363.48454168 Ha      -37102.30212354 eV

  Derived energy quantities:
  | Kinetic energy                :        1345.96934977 Ha       36625.68950186 eV
  | Electrostatic energy          :       -2637.72659657 Ha      -71776.19262502 eV
  | Energy correction for multipole
  | error in Hartree potential    :           0.00001896 Ha           0.00051593 eV
  | Sum of eigenvalues per atom                           :      -11056.48135323 eV
  | Total energy (T->0) per atom                          :      -18551.15105439 eV  <-- do not rely on this value for anything but (periodic) metals
  | Electronic free energy per atom                       :      -18551.15106177 eV

  Self-consistency convergence accuracy:
  | Change of charge density      :  0.4803E-05
  | Change of sum of eigenvalues  :  0.6162E-03 eV
  | Change of total energy        : -0.1840E-07 eV

  Writing Kohn-Sham eigenvalues.

  State    Occupation    Eigenvalue [Ha]    Eigenvalue [eV]
      1       2.00000        -145.995811        -3972.74815
      2       2.00000        -145.995793        -3972.74765
      3       2.00000         -15.248206         -414.92479
      4       2.00000         -15.248196         -414.92452
      5       2.00000         -12.332171         -335.57544
      6       2.00000         -12.332171         -335.57544
      7       2.00000         -12.332169         -335.57540
      8       2.00000         -12.332169         -335.57540
      9       2.00000         -12.331412         -335.55479
     10       2.00000         -12.331408         -335.55469
     11       2.00000          -1.719130          -46.77990
     12       2.00000          -1.718804          -46.77103
     13       2.00000          -1.019989          -27.75531
     14       2.00000          -1.019989          -27.75531
     15       2.00000          -1.019612          -27.74507
     16       2.00000          -1.019612          -27.74507
     17       2.00000          -1.019312          -27.73689
     18       2.00000          -1.015647          -27.63715
     19       2.00000          -0.172207           -4.68598
     20       1.99995          -0.114415           -3.11340
     21       0.00002          -0.092871           -2.52716
     22       0.00002          -0.092871           -2.52716
     23       0.00000          -0.085619           -2.32980
     24       0.00000          -0.071198           -1.93741
     25       0.00000          -0.071198           -1.93739
     26       0.00000          -0.059715           -1.62494

  Highest occupied state (VBM) at     -3.11340074 eV
  | Occupation number:      1.99995216

  Lowest unoccupied state (CBM) at    -2.52715979 eV
  | Occupation number:      0.00002392

  Overall HOMO-LUMO gap:      0.58624095 eV.

  Self-consistency cycle converged.

  End self-consistency iteration #     8       :  max(cpu_time)    wall_clock(cpu1)
  | Time for this iteration                    :        1.062 s           1.063 s
  | Charge density update                      :        0.416 s           0.417 s
  | Density mixing                             :        0.009 s           0.009 s
  | Hartree multipole update                   :        0.005 s           0.006 s
  | Hartree multipole summation                :        0.059 s           0.059 s
  | Integration                                :        0.562 s           0.563 s
  | Solution of K.-S. eqns.                    :        0.009 s           0.009 s
  | Total energy evaluation                    :        0.000 s           0.000 s
------------------------------------------------------------

  Energy and forces in a compact form:
  | Total energy uncorrected      :         -0.371023020940134E+05 eV
  | Total energy corrected        :         -0.371023021087771E+05 eV  <-- do not rely on this value for anything but (periodic) metals
  | Electronic free energy        :         -0.371023021235408E+05 eV

  ------------------------------------ 
  Start decomposition of the XC Energy 
  ------------------------------------ 
  Hartree-Fock part   :          0.000000000 Ha              0.000000000 eV
  ------------------------------------ 
  X Energy            :        -70.163364283 Ha          -1909.242283318 eV
  C Energy GGA        :         -1.563929521 Ha            -42.556687536 eV
  Total XC Energy     :        -71.727293804 Ha          -1951.798970854 eV
  LDA X and C from self-consistent density 
  X Energy LDA        :        -65.325301922 Ha          -1777.591908182 eV
  C Energy LDA        :         -3.161931225 Ha            -86.040526319 eV
  ------------------------------------ 
  End decomposition of the XC Energy 
  ------------------------------------ 

------------------------------------------------------------------------------
  Final output of selected total energy values:

  The following output summarizes some interesting total energy values
  at the end of a run (AFTER all relaxation, molecular dynamics, etc.).

  | Total energy of the DFT / Hartree-Fock s.c.f. calculation      :         -37102.302094013 eV
  | Final zero-broadening corrected energy (caution - metals only) :         -37102.302108777 eV
  | For reference only, the value of 1 Hartree used in FHI-aims is :             27.211384500 eV

  Before relying on these values, please be sure to understand exactly which
  total energy value is referred to by a given number. Different objects may
  all carry the same name 'total energy'. Definitions:

  Total energy of the DFT / Hartree-Fock s.c.f. calculation:
  | Note that this energy does not include ANY quantities calculated after the
  | s.c.f. cycle, in particular not ANY RPA, MP2, etc. many-body perturbation terms.

  Final zero-broadening corrected energy:
  | For metallic systems only, a broadening of the occupation numbers at the Fermi
  | level can be extrapolated back to zero broadening by an electron-gas inspired
  | formula. For all systems that are not real metals, this value can be
  | meaningless and should be avoided.

------------------------------------------------------------------------------
  Methods described in the following list of references were used in this FHI-aims run.
  If you publish the results, please make sure to cite these reference if they apply.
  FHI-aims is an academic code, and for our developers (often, Ph.D. students
  and postdocs), scientific credit in the community is essential.
  Thank you for helping us!

  For any use of FHI-aims, please cite:

    Volker Blum, Ralf Gehrke, Felix Hanke, Paula Havu, Ville Havu,
    Xinguo Ren, Karsten Reuter, and Matthias Scheffler
    'Ab initio molecular simulations with numeric atom-centered orbitals'
    Computer Physics Communications 180, 2175-2196 (2009)
    http://dx.doi.org/10.1016/j.cpc.2009.06.022


  For the real-space grid partitioning and parallelization used in this calculation, please cite:

    Ville Havu, Volker Blum, Paula Havu, and Matthias Scheffler,
    'Efficient O(N) integration for all-electron electronic structure calculation'
    'using numerically tabulated basis functions'
    Journal of Computational Physics 228, 8367-8379 (2009).
    http://dx.doi.org/10.1016/j.jcp.2009.08.008

  Of course, there are many other important community references, e.g., those cited in the
  above references. Our list is limited to references that describe implementations in the
  FHI-aims code. The reason is purely practical (length of this list) - please credit others as well.

 * A warning was issued further up regarding the accuracy of onsite integrals.
   An integral with a negative eigenvalue was among the flagged integrals.
   In most standard situations, this warning is probably harmless.
   If needed, this can be verified by adjusting the radial_multiplier flag.

------------------------------------------------------------
          Leaving FHI-aims.
          Date     :  20160215, Time     :  163439.873

          Computational steps:
          | Number of self-consistency cycles          :            8

          Detailed time accounting                     :  max(cpu_time)    wall_clock(cpu1)
          | Total time                                 :        9.662 s           9.678 s
          | Preparation time                           :        0.118 s           0.118 s
          | Grid partitioning                          :        0.056 s           0.057 s
          | Preloading free-atom quantities on grid    :        0.008 s           0.008 s
          | Free-atom superposition energy             :        0.031 s           0.031 s
          | Total time for integrations                :        5.356 s           5.366 s
          | Total time for solution of K.-S. equations :        0.111 s           0.111 s
          | Total time for density update              :        3.331 s           3.336 s
          | Total time for mixing                      :        0.051 s           0.050 s
          | Total time for Hartree multipole update    :        0.042 s           0.042 s
          | Total time for Hartree multipole sum       :        0.474 s           0.474 s
          | Total time for total energy evaluation     :        0.001 s           0.001 s
          | Total time for scaled ZORA corrections     :        0.000 s           0.000 s

          Have a nice day.
------------------------------------------------------------
