  MPI-parallelism will be employed.
------------------------------------------------------------
          Invoking FHI-aims ...
          Version 101914
          Git rev. (modified): 87df676 working on the DMFT band structure output
          Compiled on 2016/02/18 at 18:01:40 on host theobook103.

          When using FHI-aims, please cite the following reference:

          Volker Blum, Ralf Gehrke, Felix Hanke, Paula Havu,
          Ville Havu, Xinguo Ren, Karsten Reuter, and Matthias Scheffler,
          'Ab Initio Molecular Simulations with Numeric Atom-Centered Orbitals: FHI-aims',
          Computer Physics Communications 180, 2175-2196 (2009)

          For any questions about FHI-aims, please visit the aimsclub website
          with its forums and wiki. Contributions to both the forums and the
          wiki are warmly encouraged - they are for you, and everyone is welcome there.

------------------------------------------------------------

  Date     :  20160315, Time     :  182502.459
  Time zero on CPU 1             :   0.779400000000000E-02  s.
  Internal wall clock time zero  :           227298302.459  s.

  Using        4 parallel tasks.
  Task        0 on host theobook103 reporting.
  Task        1 on host theobook103 reporting.
  Task        2 on host theobook103 reporting.
  Task        3 on host theobook103 reporting.

  Performing system and environment tests:
  *** Environment variable OMP_NUM_THREADS is not set
  *** For performance reasons you might want to set it to 1
  | Stacksize not measured: no C compiler
  | Checking for scalapack...
  | No scalapack compiled in.

  Obtaining array dimensions for all initial allocations:
  
  -----------------------------------------------------------------------
  Parsing control.in (first pass over file, find array dimensions only).
  The contents of control.in will be repeated verbatim below
  unless switched off by setting 'verbatim_writeout .false.' .
  in the first line of control.in .
  -----------------------------------------------------------------------
  
  #################################
  #  xc             pw-lda
   xc             pbe
  #  xc             hf
  #  sc_self_energy dmft_gw 0.3
   #sc_self_energy dmft_pbe0 0.5 0.25
  # sc_self_energy scgw
  
    qpe_calc gw
  
  ################################# Periodic
  #  k_grid 16 16 16
  #  k_grid 10 10 10
    #k_offset 0.5 0.5 0.5
    #k_grid 6 6 6
  # k_grid  8 8 8
  #  k_grid 4 4 4
  #  k_grid 10 10 10
  #  k_offset 1 1 1
  #  use_hf_kspace     .true.
    RI_method       V
  ################################# RPA and GW
  #  total_energy_method rpa
  #  qpe_calc gw
  #  state_upper_limit 10000
    frequency_points 20
    maximum_frequency 7000
    time_points 20
    maximum_time 1000
  #  empty_states       5000
  ################################# Spin
    spin none
  #  spin collinear
  #  multiplicity 0
  #  default_initial_moment 1
  ################################# Convergence
  #  occupation_type gaussian 0.1  # good for Si with lattice constant 2.7
    occupation_type gaussian 0.1
  #  occupation_type gaussian 0.5
    mixer          pulay
    charge_mix_param  0.5
    n_max_pulay      10
  #  preconditioner kerker 1.5
    sc_accuracy_rho  1E-5
    sc_accuracy_eev  1E-3
    sc_accuracy_etot 1E-6
    sc_iter_limit 200
  ################################# Performance
  #  relativistic   zora scalar 1e-12
    relativistic       atomic_zora scalar
  #  relativistic  none
  #  KS_method      lapack
  #  basis_threshold 1.e-5
  #  prodbas_threshold 1.e-4
  #  occupation_acc 1e-08
  #  partition_acc 1e-20
    override_illconditioning .true.
  #  output dos -200 200  15000  0.02
  ################################################################################
  #
  #  FHI-aims code project
  # Volker Blum, Fritz Haber Institute Berlin, 2009
  #
  #  Suggested "tight" defaults for Ca atom (to be pasted into control.in file)
  #
  ################################################################################
    species        Ca
  #     global species definitions
      nucleus             20
      mass                40.078
  #
      l_hartree           6
  #
      cut_pot             5.0          2.0  1.0
      basis_dep_cutoff    1e-4
  #
      radial_base         47 7.0
      radial_multiplier   2
      angular_grids       specified
       division   0.5361  110
       division   0.7866  194
       division   0.9689  302
       division   1.0269  434
  #     division   1.2909  590
  #     division   1.3280  770
  #     division   1.4872  974
  #     outer_grid  974
        outer_grid  434
  ################################################################################
  #
  #  Definition of "minimal" basis
  #
  #  Note: Ca+ ionic basis functions perform better than Ca2+ ionic
  #  basis functions for the neutral Ca dimer. This is why they are used here.
  #
  ################################################################################
  #     valence basis states
      valence      4  s   2.
      valence      3  p   6.
  #     ion occupancy
      ion_occ      4  s   1.
      ion_occ      3  p   6.
  ################################################################################
  #
  #  Suggested additional basis functions. For production calculations,
  #  uncomment them one after another (the most important basis functions are
  #  listed first).
  #
  #  Constructed for dimers: 2.5 A, 3.0 A, 3.5 A, 4.0 A, 5.0 A
  #
  #  Ca appears to require two d functions in tier 1, because the atomic configuration
  #  does not provide a 3d valence function.
  #
  ################################################################################
  #  "First tier" - improvements: -486.29 meV to -11.73 meV
       ionic 3 d auto
       ionic 4 p auto
       hydro 3 d 2.3
       hydro 4 f 4.8
       ionic 4 s auto
  #  "Second tier" - improvements: -6.34 meV to -0.27 meV
       hydro 5 g 6.8
       hydro 3 p 3.8
       hydro 6 h 10.4
       hydro 1 s 0.55
       hydro 5 f 9.2
       hydro 5 p 3.3
       hydro 4 d 5
  #  "Third tier" - improvements: -0.18 meV to -0.06 meV
       hydro 5 p 5.4
       hydro 5 f 5
       hydro 5 s 4.6
       hydro 2 p 4.2
       hydro 5 g 9.8
       hydro 4 d 5.2
  #  Two extra functions (no real "tier") - improvements: -0.07 meV, -0.05 meV
  #     hydro 4 f 8.8
  #     hydro 2 p 1.2
  
  -----------------------------------------------------------------------
  Completed first pass over input file control.in .
  -----------------------------------------------------------------------
  
  
  -----------------------------------------------------------------------
  Parsing geometry.in (first pass over file, find array dimensions only).
  The contents of geometry.in will be repeated verbatim below
  unless switched off by setting 'verbatim_writeout .false.' .
  in the first line of geometry.in .
  -----------------------------------------------------------------------
  
  # Geometry of Ca dimer
  atom         0.00000000        0.00000000        0.00000000  Ca
  atom         0.00000000        0.00000000        3.500  Ca
  
  -----------------------------------------------------------------------
  Completed first pass over input file geometry.in .
  -----------------------------------------------------------------------
  

  Basic array size parameters:
  | Number of species                 :        1
  | Number of atoms                   :        2
  | Max. basis fn. angular momentum   :        5
  | Max. atomic/ionic basis occupied n:        4
  | Max. number of basis fn. types    :        3
  | Max. radial fns per species/type  :       15
  | Max. logarithmic grid size        :     1376
  | Max. radial integration grid size :       95
  | Max. angular integration grid size:      434
  | Max. angular grid division number :        8
  | Radial grid for Hartree potential :     1376
  | Number of spin channels           :        1

------------------------------------------------------------
          Reading file control.in.
------------------------------------------------------------
  XC: Using PBE gradient-corrected functionals.
  GW quasiparticle calculation of excited states will be started after the DFT/HF calculation.
 The 'V' version of RI (resolution of identity) technique is used.
  Number of frequency points used for the self-energy calculation:     20
  Maximum frequency for the self-energy:        7000.00  Ha.
  Number of time points used for the self-energy calculation:     20
  Maximum time for the self-energy:        1000.00
  Spin treatment: No spin polarisation.
  Occupation type: Gaussian broadening, width =   0.100000E+00 eV.
  Using pulay charge density mixing.
  Charge density mixing - mixing parameter:     0.5000
  Pulay mixing - number of memorized iterations:   10
  Convergence accuracy of self-consistent charge density: 0.1000E-04
  Convergence accuracy of sum of eigenvalues: 0.1000E-02
  Convergence accuracy of total energy: 0.1000E-05
  Maximum number of s.-c. iterations  :   200
  Scalar relativistic treatment of kinetic energy: on-site free-atom approximation to ZORA.
  override_illconditioning: Explicitly overriding any built-in checks for an ill-conditioned overlap matrix.
  *** WARNING: If you use this flag, you should really know what you are doing.
  *** DO NOT keep this flag set by default in all your control.in files.
 
  Reading configuration options for species Ca                  .
  | Found nuclear charge :  20.0000
  | Found atomic mass :    40.0780000000000      amu
  | Found l_max for Hartree potential  :   6
  | Found cutoff potl. onset [A], width [A], scale factor :    5.00000    2.00000    1.00000
  | Threshold for basis-dependent cutoff potential is   0.100000E-03
  | Found data for basic radial integration grid :    47 points, outermost radius =    7.000 A
  | Found multiplier for basic radial grid :   2
  | Found angular grid specification: user-specified.
  | Specified grid contains     5 separate shells.
  | Check grid settings after all constraints further below.
  | Found free-atom valence shell :  4 s   2.000
  | Found free-atom valence shell :  3 p   6.000
  | Found free-ion valence shell :  4 s   1.000
  | Found free-ion valence shell :  3 p   6.000
  | Found ionic basis function :  3 d , default cutoff radius.
  | Found ionic basis function :  4 p , default cutoff radius.
  | Found hydrogenic basis function :  3 d   2.300
  | Found hydrogenic basis function :  4 f   4.800
  | Found ionic basis function :  4 s , default cutoff radius.
  | Found hydrogenic basis function :  5 g   6.800
  | Found hydrogenic basis function :  3 p   3.800
  | Found hydrogenic basis function :  6 h  10.400
  | Found hydrogenic basis function :  1 s   0.550
  | Found hydrogenic basis function :  5 f   9.200
  | Found hydrogenic basis function :  5 p   3.300
  | Found hydrogenic basis function :  4 d   5.000
  | Found hydrogenic basis function :  5 p   5.400
  | Found hydrogenic basis function :  5 f   5.000
  | Found hydrogenic basis function :  5 s   4.600
  | Found hydrogenic basis function :  2 p   4.200
  | Found hydrogenic basis function :  5 g   9.800
  | Found hydrogenic basis function :  4 d   5.200
  Species Ca                  : Missing cutoff potential type.
  Defaulting to exp(1/x)/(1-x)^2 type cutoff potential.
  Species Ca: No 'logarithmic' tag. Using default grid for free atom:
  | Default logarithmic grid data [bohr] : 0.1000E-03 0.1000E+03 0.1012E+01
  | Will include ionic basis functions of  1.0-fold positive Ca                   ion.
  Species Ca: On-site basis accuracy parameter (for Gram-Schmidt orthonormalisation) not specified.
  Using default value basis_acc =  0.1000000E-03.
  Species Ca                  : Using default innermost maximum threshold i_radial=  2 for radial functions.
  Species Ca                  : Default cutoff onset for free atom density etc. is infinite
  since the product basis is used (hybrid functionals, Hartree-Fock, GW etc.).
  Species Ca                  : Basic radial grid will be enhanced according to radial_multiplier =   2, to contain    95 grid points.
 
  Finished reading input file 'control.in'. Consistency checks are next.
 
  Species Ca: Using default value for prodbas_acc =   1.000000E-04.
  Species Ca: Using default value max_l_prodbas =     5.
 * Species Ca: Specified min. number of angular integration points is   110
 * The angular momenta for this species require   194 for RI_type 'V'. Increasing angular_min to   194.
 * Species Ca: Grid shell     1 contains only   110 angular integration points.
 * Increasing to angular_min =   194 integration points.
 * This change is related to the three-center integrals used in RI_method 'V'.
  Target number of points in a grid batch is not set. Defaulting to  100
  Method for grid partitioning is not set. Defaulting to parallel hash+maxmin partitioning.
  Batch size limit is not set. Defaulting to    200
  By default, will store active basis functions for each batch.
  If in need of memory, prune_basis_once .false. can be used to disable this option.
  communication_type for Hartree potential was not specified.
  Defaulting to calc_hartree .
  Pulay mixer: Number of initial linear mixing iterations not set.
  Defaulting to    0 iterations.
  Work space size for distributed Hartree potential not set.
  Defaulting to   0.200000E+03 MB.
  Algorithm-dependent basis array size parameters:
  | n_max_pulay                         :       10
  Calculation of forces was not defined in control.in. No forces will be calculated.
  Geometry relaxation not requested: no relaxation will be performed.
  No accuracy limit for integral partition fn. given. Defaulting to 0.1000E-14.
  No threshold value for u(r) in integrations given. Defaulting to 0.1000E-05.
  No accuracy for occupation numbers given. Defaulting to 0.1000E-07.
  No threshold value for occupation numbers given. Defaulting to 0.0000E+00.
  No accuracy for fermi level given. Defaulting to 0.1000E-19.
  Maximum # of iterations to find E_F not set. Defaulting to  200.
  Preferred method for the eigenvalue solver ('KS_method') not specified in 'control.in'.
  Calling blacs routine to test compilation state
  The best choice would be 'elpa', but your version of FHI-aims is compiled without scalapack support.
  Defaulting to 'lapack_fast' instead (serial solution, time will not improve with more CPUs).
  Will not use alltoall communication since running on < 1024 CPUs.
  Threshold for basis singularities not set.
  Default threshold for basis singularities: 0.1000E-04
  partition_type (choice of integration weights) for integrals was not specified.
  | Using a version of the partition function of Stratmann and coworkers ('stratmann_smoother').
  | At each grid point, the set of atoms used to build the partition table is smoothly restricted to
  | only those atoms whose free-atom density would be non-zero at that grid point.
  Partitioning for Hartree potential was not defined. Using partition_type for integrals.
  | Adjusted default value of keyword multip_moments_threshold to:       0.10000000E-11
  | This value may affect high angular momentum components of the Hartree potential in periodic systems.
  Threshold for auxiliary basis singularities not set.
  Default threshold for auxiliary basis singularities: 0.1000E-04
  No q(lm)/r^(l+1) cutoff set for long-range Hartree potential.
  | Using default value of  0.100000E-09 .
  | Verify using the multipole_threshold keyword.
  Defaulting to new monopole extrapolation.
  Density update method: automatic selection selected.
  Default to 1D ("use_logsbt") integrations for auxiliary 2-center integrals.
  Default onset of logarithmic r-grid for SBT is-38.000000000000
  Default onset of logarithmic k-grid for SBT is-25.000000000000
  Default range of logarithmic r- and k-grid for SBT is 45.000000000000
  Default number of logarithmic r- and k-grid for SBT is  4096
------------------------------------------------------------


------------------------------------------------------------
          Reading geometry description geometry.in.
------------------------------------------------------------
  Input structure read successfully.
  The structure contains        2 atoms,  and a total of         40.000 electrons.

  Input geometry:
  | No unit cell requested.
  | Atomic structure:
  |       Atom                x [A]            y [A]            z [A]
  |    1: Species Ca             0.000000         0.000000         0.000000
  |    2: Species Ca             0.000000         0.000000         3.500000
  |

  | The smallest distance between any two atoms is         3.50000000 AA.
  |
  | The first atom of this pair is atom number                      1 .
  | The second atom of this pair is atom number                     2 .

  Number of empty states per atom not set in control.in .
  | Since you are using a method that relies on the unoccupied spectrum
  | (MP2,GW,RPA et al.), will use the full Hamiltonian size (see below)
  | as the max. possible number of states (occupied plus empty).

  Structure-dependent array size parameters: 
  | Maximum number of distinct radial functions  :       24
  | Maximum number of basis functions            :      196
  | Number of Kohn-Sham states (occupied + empty):      196
------------------------------------------------------------

------------------------------------------------------------
          Preparing all fixed parts of the calculation.
------------------------------------------------------------
  Determining machine precision:
    2.225073858507201E-308
  Setting up grids for atomic and cluster calculations.

  Creating wave function, potential, and density for free atoms.

  Species: Ca

  List of occupied orbitals and eigenvalues:
    n    l              occ      energy [Ha]    energy [eV]
    1    0           2.0000      -145.834890     -3968.3693
    2    0           2.0000       -15.236400      -414.6035
    3    0           2.0000        -1.730578       -47.0914
    4    0           2.0000        -0.138404        -3.7662
    2    1           6.0000       -12.306984      -334.8901
    3    1           6.0000        -1.029198       -28.0059

  Creating fixed part of basis set: Ionic, confined, hydrogenic.
 
  Ca                   ion:

  List of free ionic orbitals and eigenvalues:
    n    l      energy [Ha]    energy [eV]
    1    0      -146.094633     -3975.4372
    2    0       -15.493962      -421.6121
    3    0        -1.984196       -53.9927
    4    0        -0.329457        -8.9650
    2    1       -12.564632      -341.9010
    3    1        -1.281792       -34.8793


  List of ionic basis orbitals and eigenvalues:
    n    l      energy [Ha]    energy [eV]    outer radius [A]
    3    2        -0.306476        -8.3396       6.067983
    4    1        -0.217197        -5.9102       6.450458
    4    0        -0.329374        -8.9627       6.372081

 
  Ca                   hydrogenic:
 
  List of hydrogenic basis orbitals: 
    n    l      effective z      eigenvalue [eV]  inner max. [A]     outer max. [A]     outer radius [A]   
    3    2         2.300000        -7.9634           2.069336           2.069336           6.450458
    4    3         4.800000       -19.5909           1.765268           1.765268           6.372081
    5    4         6.800000       -25.1638           1.946636           1.946636           6.372081
    3    1         3.800000       -21.8293           0.417177           1.681024           6.142619
    6    5        10.400000       -40.8773           1.831211           1.831211           6.067983
    1    0         0.550000        -4.1096           0.957963           0.957963           6.372081
    5    3         9.200000       -46.0632           0.697121           1.876536           5.708186
    5    1         3.300000        -1.9327           0.432761           4.637041           6.529798
    4    2         5.000000       -21.2561           0.714376           2.254217           6.372081
    5    1         5.400000       -15.5327           0.271955           3.721128           6.529798
    5    3         5.000000       -13.3859           1.284607           3.415937           6.450458
    5    0         4.600000       -10.2907           0.084103           4.205010           6.529798
    2    1         4.200000       -60.0010           0.501140           0.501140           3.587128
    5    4         9.800000       -52.2675           1.348986           1.348986           5.113461
    4    2         5.200000       -22.9921           0.688651           2.146637           6.372081
 

  Adding cutoff potential to free-atom effective potential.
  Creating atomic-like basis functions for current effective potential.

  Species Ca                  :

  List of atomic basis orbitals and eigenvalues:
    n    l      energy [Ha]    energy [eV]    outer radius [A]
    1    0      -145.834890     -3968.3693       0.539280
    2    0       -15.236400      -414.6035       1.681024
    3    0        -1.730578       -47.0914       4.869428
    4    0        -0.137894        -3.7523       6.450458
    2    1       -12.306984      -334.8901       1.808961
    3    1        -1.029198       -28.0059       5.708186

  Assembling full basis from fixed parts.
  | Species Ca :   atomic orbital   1 s accepted.
  | Species Ca :   atomic orbital   2 s accepted.
  | Species Ca :   atomic orbital   3 s accepted.
  | Species Ca :    ionic orbital   4 s accepted.
  | Species Ca :    hydro orbital   1 s accepted.
  | Species Ca :   atomic orbital   4 s accepted.
  | Species Ca :    hydro orbital   5 s accepted.
  | Species Ca :   atomic orbital   2 p accepted.
  | Species Ca :    hydro orbital   2 p accepted.
  | Species Ca :   atomic orbital   3 p accepted.
  | Species Ca :    hydro orbital   3 p accepted.
  | Species Ca :    ionic orbital   4 p accepted.
  | Species Ca :    hydro orbital   5 p accepted.
  | Species Ca :    hydro orbital   5 p accepted.
  | Species Ca :    ionic orbital   3 d accepted.
  | Species Ca :    hydro orbital   4 d accepted.
  | Species Ca :    hydro orbital   4 d accepted.
  | Species Ca :    hydro orbital   3 d accepted.
  | Species Ca :    hydro orbital   5 f accepted.
  | Species Ca :    hydro orbital   4 f accepted.
  | Species Ca :    hydro orbital   5 f accepted.
  | Species Ca :    hydro orbital   5 g accepted.
  | Species Ca :    hydro orbital   5 g accepted.
  | Species Ca :    hydro orbital   6 h accepted.
 
  Basis size parameters after reduction:
  | Total number of radial functions:       24
  | Total number of basis functions :      196
 
  Testing on-site integration grid accuracy.
  |  Species  Function  <phi|h_atom|phi> (log., in eV)  <phi|h_atom|phi> (rad., in eV)
           1        1              -3968.3692711654              -3968.3691691387
           1        2               -414.6035319357               -414.6035301856
           1        3                -47.0914278797                -47.0914277080
           1        4                 -3.6270003994                 -3.6272100508
           1        5                 30.0801068145                 30.0654014266
           1        6                  3.0256431535                  3.0137109667
           1        7                 43.0875520988                 43.0391351694 ***
           1        8               -334.8900791952               -334.8900787773
           1        9                -27.6096385731                -27.6096385835
           1       10                442.0394444571                442.0394372534
           1       11                 17.9994810390                 17.9994895836
           1       12                 28.6233661030                 28.6136135692
           1       13                 22.6258648371                 22.4873511620 ***
           1       14                112.4602920771                112.4311002512
           1       15                 -1.8390933080                 -1.8390583094
           1       16                  5.8058174538                  5.8054840632
           1       17                 15.0853938004                 15.0826489493
           1       18                 36.2495174938                 36.2262517754
           1       19                 26.7969258432                 26.7969331551
           1       20                 38.2700788185                 38.2697316244
           1       21                  9.8366669943                  9.8218493422
           1       22                 36.4100233689                 36.4100225589
           1       23                 26.6030191465                 26.6025213873
           1       24                 32.4378073757                 32.4378336070
 * Note: Onsite integrals marked "***" above are less accurate than
 * onsite_accuracy_threshold =    0.03000 eV. Usually, this is harmless.
 * When in doubt, tighten the "radial" and/or "radial_multiplier" flags to check.

  Preparing densities etc. for the partition functions (integrals / Hartree potential).

  Preparations completed.
  max(cpu_time)          :      0.242 s.
  Wall clock time (cpu1) :      0.243 s.
------------------------------------------------------------

------------------------------------------------------------
          Begin self-consistency loop: Initialization.

          Date     :  20160315, Time     :  182502.706
------------------------------------------------------------

  Initializing index lists of integration centers etc. from given atomic structure:
  | Number of centers in hartree potential         :         2
  | Number of centers in hartree multipole         :         2
  | Number of centers in electron density summation:         2
  | Number of centers in basis integrals           :         2
  | Number of centers in integrals                 :         2
  Partitioning the integration grid into batches with parallel hashing+maxmin method.
  | Number of batches:      882
  | Maximal batch size:     119
  | Minimal batch size:      49
  | Average batch size:      63.696
  | Standard deviation of batch sizes:      17.351

  Integration load balanced across     4 MPI tasks.
  Work distribution over tasks is as follows:
  Task     0 has      14066 integration points.
  Task     1 has      14043 integration points.
  Task     2 has      14010 integration points.
  Task     3 has      14061 integration points.
  Initializing partition tables, free-atom densities, potentials, etc. across the integration grid (initialize_grid_storage).
  | Species        1: outer_partition_radius set to             40.362401288128417 AA .
  | Original list of interatomic distances with           2 x          2 entries is created.
  | Net number of integration points:    56180
  | of which are non-zero points    :    55392
  Obtaining max. number of non-zero basis functions in each batch (get_n_compute_maxes).
  | Maximal number of non-zero basis functions:      194 in task     0
  | Maximal number of non-zero basis functions:      194 in task     1
  | Maximal number of non-zero basis functions:      194 in task     2
  | Maximal number of non-zero basis functions:      194 in task     3
  Selecting the method for density update.
  Loop over occupied states selected for charge density update.
  Integrating Hamiltonian matrix: batch-based integration.
  Time summed over all CPUs for integration: real work        1.031 s, elapsed        1.332 s
  Integrating overlap matrix.
  Time summed over all CPUs for integration: real work        0.526 s, elapsed        0.678 s

  Updating Kohn-Sham eigenvalues, eigenvectors, occupation numbers, and Fermi level.
  Solving generalized eigenproblem
  Updating Kohn-Sham eigenvalues and eigenfunctions.
  Transforming overlap matrix and checking for singularities.
  Overlap matrix is nonsingular:
  | Lowest eigenvalue:  0.157855E-03
  Solving real generalised eigenvalue problem by standard LAPACK (fast)
  Determining occupation numbers for Kohn-Sham eigenstates.
  | Chemical potential (Fermi level) in eV                 : -.30416667E+01
  | Error in electron count due to remaining E_F inaccuracy: -.50448534E-12
  | Maximum occupation number of highest empty state:  0.00E+00

  Writing Kohn-Sham eigenvalues.

  State    Occupation    Eigenvalue [Ha]    Eigenvalue [eV]
      1       2.00000        -145.837207        -3968.43230
      2       2.00000        -145.837207        -3968.43230
      3       2.00000         -15.238811         -414.66916
      4       2.00000         -15.238811         -414.66916
      5       2.00000         -12.309452         -334.95723
      6       2.00000         -12.309452         -334.95722
      7       2.00000         -12.309352         -334.95451
      8       2.00000         -12.309352         -334.95451
      9       2.00000         -12.309352         -334.95451
     10       2.00000         -12.309352         -334.95451
     11       2.00000          -1.733989          -47.18423
     12       2.00000          -1.733654          -47.17512
     13       2.00000          -1.035938          -28.18931
     14       2.00000          -1.032279          -28.08973
     15       2.00000          -1.032279          -28.08973
     16       2.00000          -1.032203          -28.08768
     17       2.00000          -1.031892          -28.07921
     18       2.00000          -1.031892          -28.07921
     19       2.00000          -0.182456           -4.96487
     20       1.97597          -0.117643           -3.20123
     21       0.01202          -0.105252           -2.86406
     22       0.01202          -0.105252           -2.86406
     23       0.00000          -0.097892           -2.66378
     24       0.00000          -0.080464           -2.18955
     25       0.00000          -0.080464           -2.18955
     26       0.00000          -0.069541           -1.89231
     27       0.00000          -0.069541           -1.89231
     28       0.00000          -0.065027           -1.76947
     29       0.00000          -0.065027           -1.76947
     30       0.00000          -0.062945           -1.71283
     31       0.00000          -0.061590           -1.67594
     32       0.00000          -0.061590           -1.67594
     33       0.00000          -0.058215           -1.58411
     34       0.00000          -0.015505           -0.42191
     35       0.00000          -0.015505           -0.42191
     36       0.00000           0.050831            1.38320
     37       0.00000           0.052012            1.41533
     38       0.00000           0.077008            2.09548
     39       0.00000           0.077012            2.09559
     40       0.00000           0.083732            2.27847
     41       0.00000           0.092468            2.51619
     42       0.00000           0.092468            2.51619
     43       0.00000           0.097827            2.66201
     44       0.00000           0.099243            2.70055
     45       0.00000           0.099243            2.70055
     46       0.00000           0.110061            2.99490
     47       0.00000           0.110064            2.99500
     48       0.00000           0.118182            3.21590
     49       0.00000           0.118182            3.21590
     50       0.00000           0.131767            3.58556
     51       0.00000           0.131767            3.58556
     52       0.00000           0.134965            3.67257
     53       0.00000           0.148429            4.03895
     54       0.00000           0.148429            4.03896
     55       0.00000           0.151421            4.12038
     56       0.00000           0.151421            4.12038
     57       0.00000           0.169801            4.62053
     58       0.00000           0.176810            4.81124
     59       0.00000           0.176810            4.81124
     60       0.00000           0.209523            5.70140
     61       0.00000           0.209523            5.70140
     62       0.00000           0.243533            6.62686
     63       0.00000           0.246487            6.70724
     64       0.00000           0.246508            6.70782
     65       0.00000           0.307410            8.36505
     66       0.00000           0.373835           10.17256
     67       0.00000           0.376816           10.25368
     68       0.00000           0.376816           10.25368
     69       0.00000           0.384004           10.44929
     70       0.00000           0.386202           10.50910
     71       0.00000           0.386202           10.50910
     72       0.00000           0.404750           11.01381
     73       0.00000           0.425035           11.56580
     74       0.00000           0.437457           11.90381
     75       0.00000           0.437457           11.90381
     76       0.00000           0.444255           12.08880
     77       0.00000           0.444257           12.08885
     78       0.00000           0.446123           12.13963
     79       0.00000           0.446123           12.13963
     80       0.00000           0.468386           12.74543
     81       0.00000           0.468388           12.74549
     82       0.00000           0.480721           13.08107
     83       0.00000           0.480721           13.08107
     84       0.00000           0.525175           14.29073
     85       0.00000           0.525177           14.29081
     86       0.00000           0.543769           14.79672
     87       0.00000           0.543769           14.79672
     88       0.00000           0.550778           14.98744
     89       0.00000           0.550778           14.98744
     90       0.00000           0.557897           15.18115
     91       0.00000           0.557899           15.18120
     92       0.00000           0.558144           15.18787
     93       0.00000           0.558149           15.18800
     94       0.00000           0.565889           15.39862
     95       0.00000           0.567917           15.45379
     96       0.00000           0.567917           15.45379
     97       0.00000           0.574339           15.62855
     98       0.00000           0.574339           15.62855
     99       0.00000           0.592521           16.12333
    100       0.00000           0.610564           16.61430
    101       0.00000           0.610565           16.61432
    102       0.00000           0.628299           17.09689
    103       0.00000           0.628299           17.09689
    104       0.00000           0.658369           17.91514
    105       0.00000           0.658380           17.91542
    106       0.00000           0.658800           17.92686
    107       0.00000           0.751949           20.46156
    108       0.00000           0.813903           22.14744
    109       0.00000           0.813924           22.14801
    110       0.00000           0.830276           22.59295
    111       0.00000           0.830276           22.59295
    112       0.00000           0.847192           23.05326
    113       0.00000           0.847192           23.05326
    114       0.00000           0.912192           24.82200
    115       0.00000           1.072176           29.17540
    116       0.00000           1.114369           30.32353
    117       0.00000           1.114369           30.32353
    118       0.00000           1.119495           30.46300
    119       0.00000           1.119495           30.46300
    120       0.00000           1.141415           31.05949
    121       0.00000           1.141415           31.05949
    122       0.00000           1.171090           31.86698
    123       0.00000           1.171090           31.86698
    124       0.00000           1.190624           32.39853
    125       0.00000           1.190624           32.39853
    126       0.00000           1.190973           32.40802
    127       0.00000           1.207660           32.86211
    128       0.00000           1.207660           32.86211
    129       0.00000           1.208189           32.87649
    130       0.00000           1.208189           32.87649
    131       0.00000           1.227016           33.38881
    132       0.00000           1.227016           33.38881
    133       0.00000           1.269965           34.55752
    134       0.00000           1.283647           34.92982
    135       0.00000           1.283647           34.92982
    136       0.00000           1.290722           35.12232
    137       0.00000           1.290722           35.12234
    138       0.00000           1.395491           37.97323
    139       0.00000           1.409496           38.35433
    140       0.00000           1.409514           38.35483
    141       0.00000           1.417569           38.57402
    142       0.00000           1.451583           39.49959
    143       0.00000           1.451583           39.49959
    144       0.00000           1.518132           41.31047
    145       0.00000           1.518167           41.31143
    146       0.00000           1.526924           41.54972
    147       0.00000           1.526924           41.54972
    148       0.00000           1.603304           43.62813
    149       0.00000           1.603304           43.62813
    150       0.00000           1.616630           43.99075
    151       0.00000           1.616639           43.99098
    152       0.00000           1.660696           45.18985
    153       0.00000           1.793131           48.79357
    154       0.00000           1.793131           48.79357
    155       0.00000           1.794021           48.81779
    156       0.00000           1.794027           48.81797
    157       0.00000           1.846739           50.25232
    158       0.00000           1.846746           50.25252
    159       0.00000           1.888476           51.38804
    160       0.00000           1.913998           52.08252
    161       0.00000           1.913998           52.08254
    162       0.00000           1.940805           52.81200
    163       0.00000           1.940805           52.81200
    164       0.00000           1.985520           54.02875
    165       0.00000           1.985520           54.02875
    166       0.00000           2.028621           55.20158
    167       0.00000           2.028621           55.20158
    168       0.00000           2.033573           55.33635
    169       0.00000           2.033573           55.33635
    170       0.00000           2.044188           55.62518
    171       0.00000           2.044188           55.62518
    172       0.00000           2.051870           55.83423
    173       0.00000           2.051870           55.83423
    174       0.00000           2.077586           56.53400
    175       0.00000           2.111379           57.45354
    176       0.00000           2.112694           57.48932
    177       0.00000           2.112701           57.48952
    178       0.00000           2.277700           61.97937
    179       0.00000           2.277712           61.97969
    180       0.00000           2.321802           63.17944
    181       0.00000           2.327878           63.34477
    182       0.00000           2.327878           63.34477
    183       0.00000           2.330864           63.42603
    184       0.00000           2.594525           70.60061
    185       0.00000           2.594525           70.60061
    186       0.00000           2.646435           72.01316
    187       0.00000           2.808646           76.42714
    188       0.00000           2.808646           76.42714
    189       0.00000           3.408399           92.74726
    190       0.00000           3.741064          101.79952
    191       0.00000          21.273948          578.89359
    192       0.00000          21.273948          578.89359
    193       0.00000          21.290307          579.33873
    194       0.00000          21.290307          579.33873
    195       0.00000          21.399825          582.31886
    196       0.00000          21.409420          582.57996

  Highest occupied state (VBM) at     -3.20123476 eV
  | Occupation number:      1.97596899

  Lowest unoccupied state (CBM) at    -2.86406341 eV
  | Occupation number:      0.01201546

  Overall HOMO-LUMO gap:      0.33717135 eV.
  Calculating total energy contributions from superposition of free atom densities.

  Total energy components:
  | Sum of eigenvalues            :        -811.94484453 Ha      -22094.14335721 eV
  | XC energy correction          :         -72.09157110 Ha       -1961.71146033 eV
  | XC potential correction       :          93.29368906 Ha        2538.65044455 eV
  | Free-atom electrostatic energy:        -573.06830630 Ha      -15593.98202741 eV
  | Hartree energy correction     :           0.00000000 Ha           0.00000000 eV
  | Entropy correction            :          -0.00016972 Ha          -0.00461837 eV
  | ---------------------------
  | Total energy                  :       -1363.81103286 Ha      -37111.18640040 eV
  | Total energy, T -> 0          :       -1363.81120258 Ha      -37111.19101877 eV  <-- do not rely on this value for anything but (periodic) metals
  | Electronic free energy        :       -1363.81137230 Ha      -37111.19563714 eV

  Derived energy quantities:
  | Kinetic energy                :        1373.16237041 Ha       37365.64924203 eV
  | Electrostatic energy          :       -2664.88183216 Ha      -72515.12418210 eV
  | Energy correction for multipole
  | error in Hartree potential    :           0.00000000 Ha           0.00000000 eV
  | Sum of eigenvalues per atom                           :      -11047.07167860 eV
  | Total energy (T->0) per atom                          :      -18555.59550939 eV  <-- do not rely on this value for anything but (periodic) metals
  | Electronic free energy per atom                       :      -18555.59781857 eV
  Initialize hartree_potential_storage
  Max. number of atoms included in rho_multipole:            2

  End scf initialization - timings             :  max(cpu_time)    wall_clock(cpu1)
  | Time for scf. initialization               :        0.651 s           0.652 s
  | Boundary condition initialization          :        0.000 s           0.000 s
  | Integration                                :        0.503 s           0.504 s
  | Solution of K.-S. eqns.                    :        0.059 s           0.058 s
  | Grid partitioning                          :        0.033 s           0.033 s
  | Preloading free-atom quantities on grid    :        0.017 s           0.017 s
  | Free-atom superposition energy             :        0.020 s           0.020 s
  | Total energy evaluation                    :        0.000 s           0.000 s
------------------------------------------------------------

------------------------------------------------------------
          Begin self-consistency iteration #    1

  Date     :  20160315, Time     :  182503.358
------------------------------------------------------------
  Evaluating new KS density.
  Integration grid: deviation in total charge (<rho> - N_e) =  -4.263256E-13
  Pulay mixing of updated and previous charge densities.

  Evaluating partitioned Hartree potential by multipole expansion.
  | Analytical far-field extrapolation by fixed multipoles:
  | Hartree multipole sum: apparent total charge =  -0.206933E-04
  Summing up the Hartree potential.
  Time summed over all CPUs for potential: real work        0.107 s, elapsed        0.127 s
  | RMS charge density error from multipole expansion :   0.269634E-03

  Integrating Hamiltonian matrix: batch-based integration.
  Time summed over all CPUs for integration: real work        1.040 s, elapsed        1.339 s

  Updating Kohn-Sham eigenvalues, eigenvectors, occupation numbers, and Fermi level.
  Solving generalized eigenproblem
  Updating Kohn-Sham eigenvalues and eigenfunctions.
  Solving real generalised eigenvalue problem by standard LAPACK (fast)
  Determining occupation numbers for Kohn-Sham eigenstates.
  | Chemical potential (Fermi level) in eV                 : -.27252561E+01
  | Error in electron count due to remaining E_F inaccuracy: -.26670222E-09
  | Maximum occupation number of highest empty state:  0.00E+00

  Writing Kohn-Sham eigenvalues.

  State    Occupation    Eigenvalue [Ha]    Eigenvalue [eV]
      1       2.00000        -145.810618        -3967.70880
      2       2.00000        -145.810618        -3967.70880
      3       2.00000         -15.212912         -413.96439
      4       2.00000         -15.212912         -413.96439
      5       2.00000         -12.283597         -334.25369
      6       2.00000         -12.283597         -334.25369
      7       2.00000         -12.283597         -334.25368
      8       2.00000         -12.283597         -334.25368
      9       2.00000         -12.282946         -334.23597
     10       2.00000         -12.282946         -334.23597
     11       2.00000          -1.712401          -46.59681
     12       2.00000          -1.712079          -46.58803
     13       2.00000          -1.012662          -27.55594
     14       2.00000          -1.012552          -27.55294
     15       2.00000          -1.012552          -27.55294
     16       2.00000          -1.012172          -27.54259
     17       2.00000          -1.012172          -27.54259
     18       2.00000          -1.008966          -27.45536
     19       2.00000          -0.167713           -4.56370
     20       1.99999          -0.111499           -3.03405
     21       0.00001          -0.088416           -2.40591
     22       0.00001          -0.088416           -2.40591
     23       0.00000          -0.081003           -2.20419
     24       0.00000          -0.066481           -1.80903
     25       0.00000          -0.066481           -1.80903
     26       0.00000          -0.055171           -1.50128
     27       0.00000          -0.055171           -1.50127
     28       0.00000          -0.054104           -1.47223
     29       0.00000          -0.054104           -1.47223
     30       0.00000          -0.052155           -1.41921
     31       0.00000          -0.052155           -1.41921
     32       0.00000          -0.051880           -1.41174
     33       0.00000          -0.048833           -1.32881
     34       0.00000          -0.005606           -0.15253
     35       0.00000          -0.005606           -0.15253
     36       0.00000           0.056751            1.54429
     37       0.00000           0.059236            1.61189
     38       0.00000           0.085874            2.33674
     39       0.00000           0.085878            2.33686
     40       0.00000           0.088218            2.40054
     41       0.00000           0.099496            2.70742
     42       0.00000           0.099496            2.70742
     43       0.00000           0.102801            2.79735
     44       0.00000           0.104006            2.83015
     45       0.00000           0.104006            2.83015
     46       0.00000           0.114673            3.12040
     47       0.00000           0.114676            3.12049
     48       0.00000           0.122410            3.33094
     49       0.00000           0.122410            3.33094
     50       0.00000           0.136654            3.71854
     51       0.00000           0.136654            3.71854
     52       0.00000           0.139034            3.78330
     53       0.00000           0.152638            4.15349
     54       0.00000           0.152638            4.15350
     55       0.00000           0.154648            4.20818
     56       0.00000           0.154648            4.20818
     57       0.00000           0.176965            4.81546
     58       0.00000           0.179983            4.89760
     59       0.00000           0.179983            4.89760
     60       0.00000           0.215774            5.87150
     61       0.00000           0.215774            5.87150
     62       0.00000           0.247754            6.74173
     63       0.00000           0.251621            6.84697
     64       0.00000           0.251643            6.84755
     65       0.00000           0.319090            8.68289
     66       0.00000           0.379902           10.33766
     67       0.00000           0.384839           10.47200
     68       0.00000           0.384839           10.47200
     69       0.00000           0.390019           10.61296
     70       0.00000           0.395681           10.76704
     71       0.00000           0.395681           10.76704
     72       0.00000           0.413115           11.24143
     73       0.00000           0.434300           11.81790
     74       0.00000           0.444530           12.09628
     75       0.00000           0.444530           12.09628
     76       0.00000           0.453948           12.35255
     77       0.00000           0.453948           12.35255
     78       0.00000           0.456760           12.42907
     79       0.00000           0.456761           12.42911
     80       0.00000           0.474888           12.92237
     81       0.00000           0.474890           12.92242
     82       0.00000           0.493096           13.41784
     83       0.00000           0.493096           13.41784
     84       0.00000           0.530743           14.44225
     85       0.00000           0.530746           14.44233
     86       0.00000           0.551689           15.01222
     87       0.00000           0.551689           15.01222
     88       0.00000           0.558946           15.20970
     89       0.00000           0.558946           15.20970
     90       0.00000           0.564849           15.37032
     91       0.00000           0.564851           15.37037
     92       0.00000           0.566233           15.40799
     93       0.00000           0.566238           15.40812
     94       0.00000           0.572846           15.58794
     95       0.00000           0.573678           15.61058
     96       0.00000           0.573678           15.61058
     97       0.00000           0.583444           15.87631
     98       0.00000           0.583444           15.87631
     99       0.00000           0.600220           16.33282
    100       0.00000           0.618206           16.82223
    101       0.00000           0.618206           16.82225
    102       0.00000           0.633674           17.24316
    103       0.00000           0.633674           17.24316
    104       0.00000           0.671752           18.27930
    105       0.00000           0.671763           18.27960
    106       0.00000           0.673357           18.32299
    107       0.00000           0.758556           20.64136
    108       0.00000           0.820367           22.32332
    109       0.00000           0.820388           22.32389
    110       0.00000           0.838960           22.82926
    111       0.00000           0.838960           22.82926
    112       0.00000           0.863711           23.50278
    113       0.00000           0.863711           23.50278
    114       0.00000           0.931446           25.34593
    115       0.00000           1.086992           29.57857
    116       0.00000           1.123120           30.56165
    117       0.00000           1.123120           30.56166
    118       0.00000           1.129059           30.72326
    119       0.00000           1.129059           30.72326
    120       0.00000           1.152026           31.34822
    121       0.00000           1.152026           31.34822
    122       0.00000           1.178887           32.07916
    123       0.00000           1.178887           32.07916
    124       0.00000           1.200058           32.65523
    125       0.00000           1.203387           32.74584
    126       0.00000           1.203387           32.74584
    127       0.00000           1.215328           33.07075
    128       0.00000           1.215328           33.07075
    129       0.00000           1.220384           33.20834
    130       0.00000           1.220384           33.20835
    131       0.00000           1.238023           33.68832
    132       0.00000           1.238023           33.68832
    133       0.00000           1.281010           34.85806
    134       0.00000           1.299585           35.36351
    135       0.00000           1.299585           35.36351
    136       0.00000           1.300285           35.38255
    137       0.00000           1.300285           35.38256
    138       0.00000           1.414137           38.48064
    139       0.00000           1.423813           38.74391
    140       0.00000           1.423831           38.74441
    141       0.00000           1.432893           38.99101
    142       0.00000           1.464051           39.83885
    143       0.00000           1.464051           39.83885
    144       0.00000           1.533799           41.73681
    145       0.00000           1.533835           41.73778
    146       0.00000           1.541899           41.95720
    147       0.00000           1.541899           41.95720
    148       0.00000           1.619830           44.07781
    149       0.00000           1.619830           44.07781
    150       0.00000           1.630456           44.36696
    151       0.00000           1.630464           44.36717
    152       0.00000           1.676887           45.63041
    153       0.00000           1.805478           49.12955
    154       0.00000           1.805484           49.12973
    155       0.00000           1.806527           49.15810
    156       0.00000           1.806527           49.15810
    157       0.00000           1.857633           50.54876
    158       0.00000           1.857640           50.54896
    159       0.00000           1.899989           51.70132
    160       0.00000           1.930175           52.52272
    161       0.00000           1.930175           52.52272
    162       0.00000           1.954583           53.18690
    163       0.00000           1.954583           53.18690
    164       0.00000           1.997803           54.36297
    165       0.00000           1.997803           54.36297
    166       0.00000           2.044311           55.62854
    167       0.00000           2.044311           55.62854
    168       0.00000           2.054111           55.89520
    169       0.00000           2.054111           55.89520
    170       0.00000           2.059370           56.03831
    171       0.00000           2.059370           56.03831
    172       0.00000           2.067118           56.24914
    173       0.00000           2.067118           56.24914
    174       0.00000           2.091744           56.91926
    175       0.00000           2.126857           57.87473
    176       0.00000           2.126865           57.87495
    177       0.00000           2.129080           57.93523
    178       0.00000           2.293234           62.40207
    179       0.00000           2.293245           62.40237
    180       0.00000           2.340683           63.69323
    181       0.00000           2.340683           63.69323
    182       0.00000           2.342600           63.74539
    183       0.00000           2.344868           63.80711
    184       0.00000           2.614970           71.15696
    185       0.00000           2.614970           71.15696
    186       0.00000           2.663874           72.48770
    187       0.00000           2.824217           76.85085
    188       0.00000           2.824217           76.85085
    189       0.00000           3.425210           93.20472
    190       0.00000           3.765967          102.47718
    191       0.00000          21.298257          579.55506
    192       0.00000          21.298257          579.55506
    193       0.00000          21.314608          579.99998
    194       0.00000          21.314608          579.99998
    195       0.00000          21.425438          583.01583
    196       0.00000          21.434946          583.27457

  Highest occupied state (VBM) at     -3.03405464 eV
  | Occupation number:      1.99998741

  Lowest unoccupied state (CBM) at    -2.40591291 eV
  | Occupation number:      0.00000630

  Overall HOMO-LUMO gap:      0.62814173 eV.

  Total energy components:
  | Sum of eigenvalues            :        -811.04421772 Ha      -22069.63605479 eV
  | XC energy correction          :         -72.12958134 Ha       -1962.74577159 eV
  | XC potential correction       :          93.34382212 Ha        2540.01463454 eV
  | Free-atom electrostatic energy:        -573.06830630 Ha      -15593.98202741 eV
  | Hartree energy correction     :          -0.91140043 Ha         -24.80046765 eV
  | Entropy correction            :          -0.00000015 Ha          -0.00000414 eV
  | ---------------------------
  | Total energy                  :       -1363.80968366 Ha      -37111.14968691 eV
  | Total energy, T -> 0          :       -1363.80968381 Ha      -37111.14969105 eV  <-- do not rely on this value for anything but (periodic) metals
  | Electronic free energy        :       -1363.80968396 Ha      -37111.14969519 eV

  Derived energy quantities:
  | Kinetic energy                :        1373.34872906 Ha       37370.72031917 eV
  | Electrostatic energy          :       -2665.02883139 Ha      -72519.12423449 eV
  | Energy correction for multipole
  | error in Hartree potential    :           0.00000902 Ha           0.00024546 eV
  | Sum of eigenvalues per atom                           :      -11034.81802740 eV
  | Total energy (T->0) per atom                          :      -18555.57484552 eV  <-- do not rely on this value for anything but (periodic) metals
  | Electronic free energy per atom                       :      -18555.57484759 eV

  Self-consistency convergence accuracy:
  | Change of charge density      :  0.3978E-01
  | Change of sum of eigenvalues  :  0.2451E+02 eV
  | Change of total energy        :  0.3671E-01 eV

  End self-consistency iteration #     1       :  max(cpu_time)    wall_clock(cpu1)
  | Time for this iteration                    :        0.644 s           0.646 s
  | Charge density update                      :        0.247 s           0.247 s
  | Density mixing                             :        0.001 s           0.002 s
  | Hartree multipole update                   :        0.004 s           0.004 s
  | Hartree multipole summation                :        0.033 s           0.032 s
  | Integration                                :        0.334 s           0.335 s
  | Solution of K.-S. eqns.                    :        0.024 s           0.024 s
  | Total energy evaluation                    :        0.000 s           0.001 s
------------------------------------------------------------

------------------------------------------------------------
          Begin self-consistency iteration #    2

  Date     :  20160315, Time     :  182504.004
------------------------------------------------------------
  Evaluating new KS density.
  Integration grid: deviation in total charge (<rho> - N_e) =  -2.666880E-10
  Pulay mixing of updated and previous charge densities.

  Evaluating partitioned Hartree potential by multipole expansion.
  | Analytical far-field extrapolation by fixed multipoles:
  | Hartree multipole sum: apparent total charge =  -0.330174E-04
  Summing up the Hartree potential.
  Time summed over all CPUs for potential: real work        0.104 s, elapsed        0.126 s
  | RMS charge density error from multipole expansion :   0.323446E-03

  Integrating Hamiltonian matrix: batch-based integration.
  Time summed over all CPUs for integration: real work        1.039 s, elapsed        1.342 s

  Updating Kohn-Sham eigenvalues, eigenvectors, occupation numbers, and Fermi level.
  Solving generalized eigenproblem
  Updating Kohn-Sham eigenvalues and eigenfunctions.
  Solving real generalised eigenvalue problem by standard LAPACK (fast)
  Determining occupation numbers for Kohn-Sham eigenstates.
  | Chemical potential (Fermi level) in eV                 : -.27860252E+01
  | Error in electron count due to remaining E_F inaccuracy: -.17095658E-10
  | Maximum occupation number of highest empty state:  0.00E+00

  Highest occupied state (VBM) at     -3.05711220 eV
  | Occupation number:      1.99987380

  Lowest unoccupied state (CBM) at    -2.50311892 eV
  | Occupation number:      0.00006310

  Overall HOMO-LUMO gap:      0.55399327 eV.

  Total energy components:
  | Sum of eigenvalues            :        -811.26496346 Ha      -22075.64285202 eV
  | XC energy correction          :         -72.11954009 Ha       -1962.47253543 eV
  | XC potential correction       :          93.33058760 Ha        2539.65450492 eV
  | Free-atom electrostatic energy:        -573.06830630 Ha      -15593.98202741 eV
  | Hartree energy correction     :          -0.68726066 Ha         -18.70131413 eV
  | Entropy correction            :          -0.00000136 Ha          -0.00003701 eV
  | ---------------------------
  | Total energy                  :       -1363.80948290 Ha      -37111.14422406 eV
  | Total energy, T -> 0          :       -1363.80948426 Ha      -37111.14426107 eV  <-- do not rely on this value for anything but (periodic) metals
  | Electronic free energy        :       -1363.80948562 Ha      -37111.14429808 eV

  Derived energy quantities:
  | Kinetic energy                :        1373.22169479 Ha       37367.26354064 eV
  | Electrostatic energy          :       -2664.91163760 Ha      -72515.93522928 eV
  | Energy correction for multipole
  | error in Hartree potential    :           0.00003373 Ha           0.00091788 eV
  | Sum of eigenvalues per atom                           :      -11037.82142601 eV
  | Total energy (T->0) per atom                          :      -18555.57213054 eV  <-- do not rely on this value for anything but (periodic) metals
  | Electronic free energy per atom                       :      -18555.57214904 eV

  Self-consistency convergence accuracy:
  | Change of charge density      :  0.1625E-01
  | Change of sum of eigenvalues  : -0.6007E+01 eV
  | Change of total energy        :  0.5463E-02 eV

  End self-consistency iteration #     2       :  max(cpu_time)    wall_clock(cpu1)
  | Time for this iteration                    :        0.635 s           0.636 s
  | Charge density update                      :        0.238 s           0.238 s
  | Density mixing                             :        0.002 s           0.002 s
  | Hartree multipole update                   :        0.004 s           0.004 s
  | Hartree multipole summation                :        0.032 s           0.032 s
  | Integration                                :        0.335 s           0.336 s
  | Solution of K.-S. eqns.                    :        0.023 s           0.023 s
  | Total energy evaluation                    :        0.000 s           0.000 s
------------------------------------------------------------

------------------------------------------------------------
          Begin self-consistency iteration #    3

  Date     :  20160315, Time     :  182504.640
------------------------------------------------------------
  Evaluating new KS density.
  Integration grid: deviation in total charge (<rho> - N_e) =  -1.710987E-11
  Pulay mixing of updated and previous charge densities.

  Evaluating partitioned Hartree potential by multipole expansion.
  | Analytical far-field extrapolation by fixed multipoles:
  | Hartree multipole sum: apparent total charge =  -0.420430E-04
  Summing up the Hartree potential.
  Time summed over all CPUs for potential: real work        0.101 s, elapsed        0.122 s
  | RMS charge density error from multipole expansion :   0.399796E-03

  Integrating Hamiltonian matrix: batch-based integration.
  Time summed over all CPUs for integration: real work        1.072 s, elapsed        1.371 s

  Updating Kohn-Sham eigenvalues, eigenvectors, occupation numbers, and Fermi level.
  Solving generalized eigenproblem
  Updating Kohn-Sham eigenvalues and eigenfunctions.
  Solving real generalised eigenvalue problem by standard LAPACK (fast)
  Determining occupation numbers for Kohn-Sham eigenstates.
  | Chemical potential (Fermi level) in eV                 : -.27683673E+01
  | Error in electron count due to remaining E_F inaccuracy: 0.10438228E-08
  | Maximum occupation number of highest empty state:  0.00E+00

  Highest occupied state (VBM) at     -3.05137840 eV
  | Occupation number:      1.99993729

  Lowest unoccupied state (CBM) at    -2.47397057 eV
  | Occupation number:      0.00003135

  Overall HOMO-LUMO gap:      0.57740783 eV.

  Total energy components:
  | Sum of eigenvalues            :        -811.24543043 Ha      -22075.11133141 eV
  | XC energy correction          :         -72.11993820 Ha       -1962.48336850 eV
  | XC potential correction       :          93.33109756 Ha        2539.66838153 eV
  | Free-atom electrostatic energy:        -573.06830630 Ha      -15593.98202741 eV
  | Hartree energy correction     :          -0.70691069 Ha         -19.23601849 eV
  | Entropy correction            :          -0.00000070 Ha          -0.00001909 eV
  | ---------------------------
  | Total energy                  :       -1363.80948806 Ha      -37111.14436428 eV
  | Total energy, T -> 0          :       -1363.80948876 Ha      -37111.14438337 eV  <-- do not rely on this value for anything but (periodic) metals
  | Electronic free energy        :       -1363.80948946 Ha      -37111.14440246 eV

  Derived energy quantities:
  | Kinetic energy                :        1373.19379004 Ha       37366.50421382 eV
  | Electrostatic energy          :       -2664.88333990 Ha      -72515.16520960 eV
  | Energy correction for multipole
  | error in Hartree potential    :           0.00002735 Ha           0.00074410 eV
  | Sum of eigenvalues per atom                           :      -11037.55566570 eV
  | Total energy (T->0) per atom                          :      -18555.57219169 eV  <-- do not rely on this value for anything but (periodic) metals
  | Electronic free energy per atom                       :      -18555.57220123 eV

  Self-consistency convergence accuracy:
  | Change of charge density      :  0.7019E-02
  | Change of sum of eigenvalues  :  0.5315E+00 eV
  | Change of total energy        : -0.1402E-03 eV

  End self-consistency iteration #     3       :  max(cpu_time)    wall_clock(cpu1)
  | Time for this iteration                    :        0.649 s           0.651 s
  | Charge density update                      :        0.242 s           0.243 s
  | Density mixing                             :        0.004 s           0.004 s
  | Hartree multipole update                   :        0.005 s           0.005 s
  | Hartree multipole summation                :        0.031 s           0.031 s
  | Integration                                :        0.343 s           0.343 s
  | Solution of K.-S. eqns.                    :        0.024 s           0.024 s
  | Total energy evaluation                    :        0.000 s           0.001 s
------------------------------------------------------------

------------------------------------------------------------
          Begin self-consistency iteration #    4

  Date     :  20160315, Time     :  182505.291
------------------------------------------------------------
  Evaluating new KS density.
  Integration grid: deviation in total charge (<rho> - N_e) =   1.043801E-09
  Pulay mixing of updated and previous charge densities.

  Evaluating partitioned Hartree potential by multipole expansion.
  | Analytical far-field extrapolation by fixed multipoles:
  | Hartree multipole sum: apparent total charge =  -0.454371E-04
  Summing up the Hartree potential.
  Time summed over all CPUs for potential: real work        0.101 s, elapsed        0.125 s
  | RMS charge density error from multipole expansion :   0.430588E-03

  Integrating Hamiltonian matrix: batch-based integration.
  Time summed over all CPUs for integration: real work        1.049 s, elapsed        1.355 s

  Updating Kohn-Sham eigenvalues, eigenvectors, occupation numbers, and Fermi level.
  Solving generalized eigenproblem
  Updating Kohn-Sham eigenvalues and eigenfunctions.
  Solving real generalised eigenvalue problem by standard LAPACK (fast)
  Determining occupation numbers for Kohn-Sham eigenstates.
  | Chemical potential (Fermi level) in eV                 : -.27685558E+01
  | Error in electron count due to remaining E_F inaccuracy: -.17133317E-08
  | Maximum occupation number of highest empty state:  0.00E+00

  Highest occupied state (VBM) at     -3.05352803 eV
  | Occupation number:      1.99994425

  Lowest unoccupied state (CBM) at    -2.47226570 eV
  | Occupation number:      0.00002787

  Overall HOMO-LUMO gap:      0.58126233 eV.

  Total energy components:
  | Sum of eigenvalues            :        -811.24542690 Ha      -22075.11123511 eV
  | XC energy correction          :         -72.12038496 Ha       -1962.49552554 eV
  | XC potential correction       :          93.33167236 Ha        2539.68402258 eV
  | Free-atom electrostatic energy:        -573.06830630 Ha      -15593.98202741 eV
  | Hartree energy correction     :          -0.70704932 Ha         -19.23979103 eV
  | Entropy correction            :          -0.00000063 Ha          -0.00001707 eV
  | ---------------------------
  | Total energy                  :       -1363.80949512 Ha      -37111.14455651 eV
  | Total energy, T -> 0          :       -1363.80949575 Ha      -37111.14457358 eV  <-- do not rely on this value for anything but (periodic) metals
  | Electronic free energy        :       -1363.80949638 Ha      -37111.14459065 eV

  Derived energy quantities:
  | Kinetic energy                :        1373.19522323 Ha       37366.54321291 eV
  | Electrostatic energy          :       -2664.88433339 Ha      -72515.19224388 eV
  | Energy correction for multipole
  | error in Hartree potential    :           0.00002302 Ha           0.00062638 eV
  | Sum of eigenvalues per atom                           :      -11037.55561755 eV
  | Total energy (T->0) per atom                          :      -18555.57228679 eV  <-- do not rely on this value for anything but (periodic) metals
  | Electronic free energy per atom                       :      -18555.57229533 eV

  Self-consistency convergence accuracy:
  | Change of charge density      :  0.2085E-02
  | Change of sum of eigenvalues  :  0.9630E-04 eV
  | Change of total energy        : -0.1922E-03 eV

  End self-consistency iteration #     4       :  max(cpu_time)    wall_clock(cpu1)
  | Time for this iteration                    :        0.643 s           0.644 s
  | Charge density update                      :        0.242 s           0.242 s
  | Density mixing                             :        0.003 s           0.003 s
  | Hartree multipole update                   :        0.004 s           0.004 s
  | Hartree multipole summation                :        0.032 s           0.032 s
  | Integration                                :        0.339 s           0.339 s
  | Solution of K.-S. eqns.                    :        0.023 s           0.023 s
  | Total energy evaluation                    :        0.000 s           0.000 s
------------------------------------------------------------

------------------------------------------------------------
          Begin self-consistency iteration #    5

  Date     :  20160315, Time     :  182505.935
------------------------------------------------------------
  Evaluating new KS density.
  Integration grid: deviation in total charge (<rho> - N_e) =  -1.713303E-09
  Pulay mixing of updated and previous charge densities.

  Evaluating partitioned Hartree potential by multipole expansion.
  | Analytical far-field extrapolation by fixed multipoles:
  | Hartree multipole sum: apparent total charge =  -0.465064E-04
  Summing up the Hartree potential.
  Time summed over all CPUs for potential: real work        0.103 s, elapsed        0.125 s
  | RMS charge density error from multipole expansion :   0.444251E-03

  Integrating Hamiltonian matrix: batch-based integration.
  Time summed over all CPUs for integration: real work        1.082 s, elapsed        1.387 s

  Updating Kohn-Sham eigenvalues, eigenvectors, occupation numbers, and Fermi level.
  Solving generalized eigenproblem
  Updating Kohn-Sham eigenvalues and eigenfunctions.
  Solving real generalised eigenvalue problem by standard LAPACK (fast)
  Determining occupation numbers for Kohn-Sham eigenstates.
  | Chemical potential (Fermi level) in eV                 : -.27686814E+01
  | Error in electron count due to remaining E_F inaccuracy: -.30565701E-08
  | Maximum occupation number of highest empty state:  0.00E+00

  Highest occupied state (VBM) at     -3.05495801 eV
  | Occupation number:      1.99994847

  Lowest unoccupied state (CBM) at    -2.47113136 eV
  | Occupation number:      0.00002576

  Overall HOMO-LUMO gap:      0.58382665 eV.

  Total energy components:
  | Sum of eigenvalues            :        -811.24161101 Ha      -22075.00739961 eV
  | XC energy correction          :         -72.12087769 Ha       -1962.50893327 eV
  | XC potential correction       :          93.33231389 Ha        2539.70147957 eV
  | Free-atom electrostatic energy:        -573.06830630 Ha      -15593.98202741 eV
  | Hartree energy correction     :          -0.71101493 Ha         -19.34770073 eV
  | Entropy correction            :          -0.00000058 Ha          -0.00001584 eV
  | ---------------------------
  | Total energy                  :       -1363.80949604 Ha      -37111.14458145 eV
  | Total energy, T -> 0          :       -1363.80949662 Ha      -37111.14459730 eV  <-- do not rely on this value for anything but (periodic) metals
  | Electronic free energy        :       -1363.80949720 Ha      -37111.14461314 eV

  Derived energy quantities:
  | Kinetic energy                :        1373.20086123 Ha       37366.69663058 eV
  | Electrostatic energy          :       -2664.88947958 Ha      -72515.33227876 eV
  | Energy correction for multipole
  | error in Hartree potential    :           0.00002077 Ha           0.00056517 eV
  | Sum of eigenvalues per atom                           :      -11037.50369981 eV
  | Total energy (T->0) per atom                          :      -18555.57229865 eV  <-- do not rely on this value for anything but (periodic) metals
  | Electronic free energy per atom                       :      -18555.57230657 eV

  Self-consistency convergence accuracy:
  | Change of charge density      :  0.7518E-03
  | Change of sum of eigenvalues  :  0.1038E+00 eV
  | Change of total energy        : -0.2494E-04 eV

  End self-consistency iteration #     5       :  max(cpu_time)    wall_clock(cpu1)
  | Time for this iteration                    :        0.652 s           0.654 s
  | Charge density update                      :        0.242 s           0.242 s
  | Density mixing                             :        0.004 s           0.005 s
  | Hartree multipole update                   :        0.004 s           0.004 s
  | Hartree multipole summation                :        0.032 s           0.032 s
  | Integration                                :        0.347 s           0.347 s
  | Solution of K.-S. eqns.                    :        0.023 s           0.023 s
  | Total energy evaluation                    :        0.000 s           0.000 s
------------------------------------------------------------

------------------------------------------------------------
          Begin self-consistency iteration #    6

  Date     :  20160315, Time     :  182506.589
------------------------------------------------------------
  Evaluating new KS density.
  Integration grid: deviation in total charge (<rho> - N_e) =  -3.056648E-09
  Pulay mixing of updated and previous charge densities.

  Evaluating partitioned Hartree potential by multipole expansion.
  | Analytical far-field extrapolation by fixed multipoles:
  | Hartree multipole sum: apparent total charge =  -0.463757E-04
  Summing up the Hartree potential.
  Time summed over all CPUs for potential: real work        0.101 s, elapsed        0.122 s
  | RMS charge density error from multipole expansion :   0.445020E-03

  Integrating Hamiltonian matrix: batch-based integration.
  Time summed over all CPUs for integration: real work        1.130 s, elapsed        1.379 s

  Updating Kohn-Sham eigenvalues, eigenvectors, occupation numbers, and Fermi level.
  Solving generalized eigenproblem
  Updating Kohn-Sham eigenvalues and eigenfunctions.
  Solving real generalised eigenvalue problem by standard LAPACK (fast)
  Determining occupation numbers for Kohn-Sham eigenstates.
  | Chemical potential (Fermi level) in eV                 : -.27689045E+01
  | Error in electron count due to remaining E_F inaccuracy: -.39314827E-08
  | Maximum occupation number of highest empty state:  0.00E+00

  Highest occupied state (VBM) at     -3.05520461 eV
  | Occupation number:      1.99994854

  Lowest unoccupied state (CBM) at    -2.47133152 eV
  | Occupation number:      0.00002573

  Overall HOMO-LUMO gap:      0.58387310 eV.

  Total energy components:
  | Sum of eigenvalues            :        -811.24247463 Ha      -22075.03089980 eV
  | XC energy correction          :         -72.12082784 Ha       -1962.50757676 eV
  | XC potential correction       :          93.33224795 Ha        2539.69968531 eV
  | Free-atom electrostatic energy:        -573.06830630 Ha      -15593.98202741 eV
  | Hartree energy correction     :          -0.71013524 Ha         -19.32376307 eV
  | Entropy correction            :          -0.00000058 Ha          -0.00001582 eV
  | ---------------------------
  | Total energy                  :       -1363.80949605 Ha      -37111.14458173 eV
  | Total energy, T -> 0          :       -1363.80949663 Ha      -37111.14459755 eV  <-- do not rely on this value for anything but (periodic) metals
  | Electronic free energy        :       -1363.80949721 Ha      -37111.14461337 eV

  Derived energy quantities:
  | Kinetic energy                :        1373.19989461 Ha       37366.67032762 eV
  | Electrostatic energy          :       -2664.88856282 Ha      -72515.30733260 eV
  | Energy correction for multipole
  | error in Hartree potential    :           0.00002159 Ha           0.00058754 eV
  | Sum of eigenvalues per atom                           :      -11037.51544990 eV
  | Total energy (T->0) per atom                          :      -18555.57229878 eV  <-- do not rely on this value for anything but (periodic) metals
  | Electronic free energy per atom                       :      -18555.57230669 eV

  Self-consistency convergence accuracy:
  | Change of charge density      :  0.1046E-03
  | Change of sum of eigenvalues  : -0.2350E-01 eV
  | Change of total energy        : -0.2755E-06 eV

  End self-consistency iteration #     6       :  max(cpu_time)    wall_clock(cpu1)
  | Time for this iteration                    :        0.651 s           0.652 s
  | Charge density update                      :        0.241 s           0.241 s
  | Density mixing                             :        0.006 s           0.006 s
  | Hartree multipole update                   :        0.005 s           0.005 s
  | Hartree multipole summation                :        0.031 s           0.031 s
  | Integration                                :        0.345 s           0.345 s
  | Solution of K.-S. eqns.                    :        0.023 s           0.023 s
  | Total energy evaluation                    :        0.000 s           0.000 s
------------------------------------------------------------

------------------------------------------------------------
          Begin self-consistency iteration #    7

[...]
  |    Ca     1     5.849471 A      5.849471 A  5.754562E-16 a.u.
  |    Ca     0     5.921420 A      5.921420 A  ************ a.u.
  |    Ca     5     5.921420 A      5.921420 A  ************ a.u.
  |    Ca     5     5.921420 A      5.921420 A  1.252543E-13 a.u.
  |    Ca     2     5.994253 A      5.994253 A  1.088383E-15 a.u.
  |    Ca     3     5.994253 A      5.994253 A  9.032381E-17 a.u.
  |    Ca     3     5.994253 A      5.994253 A  ************ a.u.
  |    Ca     5     5.994253 A      5.994253 A  ************ a.u.
  |    Ca     5     5.994253 A      5.994253 A  3.567428E-13 a.u.
  |    Ca     2     6.067983 A      6.067983 A  ************ a.u.
  |    Ca     2     6.067983 A      6.067983 A  ************ a.u.
  |    Ca     2     6.142619 A      6.142619 A  1.442429E-15 a.u.
  |    Ca     4     6.142619 A      6.142619 A  6.952313E-15 a.u.
  |    Ca     3     6.218173 A      6.218173 A  ************ a.u.
  |    Ca     5     6.218173 A      6.218173 A  3.115233E-13 a.u.
  |    Ca     0     6.294657 A      6.294657 A  ************ a.u.
  |    Ca     0     6.294657 A      6.294657 A  7.212965E-17 a.u.
  |    Ca     1     6.294657 A      6.294657 A  8.557752E-16 a.u.
  |    Ca     3     6.294657 A      6.294657 A  ************ a.u.
  |    Ca     3     6.294657 A      6.294657 A  ************ a.u.
  |    Ca     3     6.294657 A      6.294657 A  ************ a.u.
  |    Ca     3     6.294657 A      6.294657 A  8.911118E-15 a.u.
  |    Ca     0     6.294657 A      6.372081 A  ************ a.u.
  |    Ca     0     6.294657 A      6.372081 A  ************ a.u.
  |    Ca     2     6.372081 A      6.372081 A  1.863276E-15 a.u.
  |    Ca     2     6.372081 A      6.372081 A  2.704192E-15 a.u.
  |    Ca     4     6.372081 A      6.372081 A  ************ a.u.
  |    Ca     4     6.372081 A      6.372081 A  4.983174E-16 a.u.
  |    Ca     4     6.372081 A      6.372081 A  9.465234E-14 a.u.
  |    Ca     5     6.372081 A  6.372081E+00 A           -0.000000 a.u.
  |    Ca     1     6.372081 A      6.450458 A  ************ a.u.
  |    Ca     1     6.372081 A      6.450458 A  ************ a.u.
  |    Ca     1     6.450458 A      6.450458 A  1.156180E-15 a.u.
  |    Ca     1     6.450458 A      6.450458 A  5.581591E-16 a.u.
  |    Ca     3     6.450458 A      6.450458 A  4.496891E-14 a.u.
  |    Ca     4     6.450458 A      6.450458 A  9.222729E-14 a.u.
  |    Ca     5     6.450458 A      6.450458 A  2.438746E-13 a.u.
  |    Ca     5     6.450458 A      6.450458 A  ************ a.u.
  |    Ca     0     6.450458 A      6.529798 A  ************ a.u.
  |    Ca     0     6.450458 A      6.529798 A  2.925279E-16 a.u.
  |    Ca     0     6.450458 A      6.529798 A  1.607429E-16 a.u.
  |    Ca     0     6.450458 A      6.529798 A  ************ a.u.
  |    Ca     1     6.450458 A      6.529798 A  ************ a.u.
  |    Ca     2     6.450458 A      6.529798 A  4.738712E-15 a.u.
  |    Ca     2     6.450458 A      6.529798 A  3.638832E-15 a.u.
  |    Ca     3     6.529798 A      6.529798 A  1.389146E-13 a.u.
  |    Ca     3     6.529798 A      6.529798 A  3.103789E-14 a.u.
  |    Ca     4     6.450458 A      6.529798 A  1.837211E-14 a.u.
  |    Ca     4     6.450458 A      6.529798 A  ************ a.u.
  |    Ca     4     6.450458 A      6.529798 A  ************ a.u.
  |    Ca     5     6.450458 A  6.529798E+00 A           -0.000000 a.u.
  |    Ca     5     6.450458 A  6.529798E+00 A           -0.000000 a.u.
  |    Ca     5     6.529798 A      6.529798 A  8.910826E-13 a.u.
  |    Ca     5     6.450458 A      6.529798 A  6.576054E-13 a.u.
  |    Ca     0     6.450458 A      6.610115 A  ************ a.u.
  |    Ca     0     6.529798 A      6.610115 A  1.303765E-16 a.u.
  |    Ca     0     6.450458 A      6.610115 A  2.545401E-16 a.u.
  |    Ca     0     6.529798 A      6.610115 A  2.998378E-16 a.u.
  |    Ca     1     6.529798 A      6.610115 A  3.970120E-16 a.u.
  |    Ca     1     6.529798 A      6.610115 A  1.528529E-15 a.u.
  |    Ca     1     6.529798 A      6.610115 A  3.590163E-16 a.u.
  |    Ca     2     6.529798 A      6.610115 A  7.661170E-15 a.u.
  |    Ca     2     6.529798 A      6.610115 A  2.192486E-15 a.u.
  |    Ca     2     6.529798 A      6.610115 A  ************ a.u.
  |    Ca     2     6.529798 A      6.610115 A  ************ a.u.
  |    Ca     2     6.529798 A      6.610115 A  4.513849E-15 a.u.
  |    Ca     3     6.529798 A      6.610115 A  1.859534E-14 a.u.
  |    Ca     3     6.529798 A      6.610115 A  ************ a.u.
  |    Ca     3     6.529798 A      6.610115 A  1.788860E-14 a.u.
  |    Ca     3     6.529798 A      6.610115 A  ************ a.u.
  |    Ca     3     6.529798 A      6.610115 A  ************ a.u.
  |    Ca     4     6.529798 A      6.610115 A  2.283462E-13 a.u.
  |    Ca     4     6.529798 A      6.610115 A  ************ a.u.
  |    Ca     4     6.529798 A      6.610115 A  ************ a.u.
  |    Ca     4     6.529798 A      6.610115 A  ************ a.u.
  |    Ca     4     6.529798 A      6.610115 A  8.273882E-14 a.u.
  |    Ca     4     6.529798 A      6.610115 A  ************ a.u.
  |    Ca     5     6.529798 A  4.199458E+02 A        19876.645042 a.u.
  |    Ca     4     6.529798 A  1.084707E+03 A         2879.692132 a.u.
  |    Ca     3     6.529798 A  4.319376E+03 A          353.239739 a.u.
  |    Ca     2     6.529798 A  4.239344E+04 A           40.915002 a.u.
  |    Ca     1     6.529798 A  4.140196E+06 A            4.871130 a.u.
  |    Ca     0     6.529798 A  5.777243E+12 A            0.868780 a.u.

  | Shrink_full_auxil_basis : there are      102  radial auxiliary wave functions
                            accepted and     598 rejected.
  | Shrink_full_auxil_basis : there are totally    1136 partial auxiliary wave functions.
 
  | Number of product basis functions per thread :   284
  | Minimal requirement for computer memory :           0.173 Gbs
 
  Basis pair condensation :     19306  -->      19297
 
 ----------------------------------------------------
  Integrating the 3-basis-function Coulomb matrix ...
  | i_atom:            1
  | i_atom:            2
  Integrating the Coulomb interaction matrix for auxiliary basis functions (by atoms)

  SBT integration errors (all should be 'small'):
  large logFT aliasing -> increase N/lnrange
  large SBT aliasing -> decrease lnk0 & increase lnk0+lnrange
  large SBT ringing -> decrease lnr0 & increase lnr0+lnrange
  |            El't  L: logFT-al.   small-k   large-k   small-r   large-r
  Atomic logSBT for 2-center Coulomb matrix    :  max(cpu_time)    wall_clock(cpu1)
  | Multiplication with kernel                 :        0.007 s           0.005 s
  | Main matrix multiplication                 :        0.054 s           0.035 s
  | Analytic angular integration               :        0.002 s           0.001 s
  | Kernel construction                        :        0.001 s           0.001 s
  | Overall 2-center overlap time              :        0.072 s           0.046 s

  Difference of Coulomb matrix to its transposed:  2.9143E-16
  Task     0: Eigenvalues of the Coulomb matrix range from    2.0000E+00 to    2.3145E-08.
  Task     0: Using     1131   eigenvalues out of rank     1136   Coulomb matrix (auxiliary basis).
  Task     0: Still using eigenvalue     2.1460E-05 while cutting     4.5091E-07 in Coulomb matrix.
 
  Multiplying V^-0.5 x ovlp_3fn (1d-scalapack)

  End of correlation preparation               :  max(cpu_time)    wall_clock(cpu1)
  | Product basis setup: Total time            :      106.995 s         107.221 s
  | Product basis: | 3-center integrations     :       97.295 s          97.482 s
  | Product basis: | 2-center integrations     :        0.177 s           0.177 s
  | Product basis: | 2-center linear algebra   :        4.806 s           4.816 s
  | Product basis: | 3-center x 2-center       :        3.458 s           3.465 s

--------------------------------------------
          GW quasiparticle calculation starts ...

  The ovlp_3KS matrix takes another     13 MiB x      4 procs =       0.050 GiB.


  Initialising transformed Gauss-Legendre time and frequency grids
  Number of freuency points for self energy.....: 20
  Number of frequency points....................: 20
 
  Starts to calculate the exchange energy ...
 
  Integrating the xc potential matrix  for basis functions ...
 
 -------------------------------------------------
  Start to calculate the self energy ... 
  HOMO and first non-fully-occupied orbitals:   22   20
 
 | i_freq    1            0.001724
 | i_freq    2            0.009172
 | i_freq    3            0.022948
 | i_freq    4            0.043739
 | i_freq    5            0.072629
 | i_freq    6            0.111227
 | i_freq    7            0.161872
 | i_freq    8            0.227958
 | i_freq    9            0.314474
 | i_freq   10            0.428913
 | i_freq   11            0.582868
 | i_freq   12            0.794978
 | i_freq   13            1.096694
 | i_freq   14            1.544434
 | i_freq   15            2.247658
 | i_freq   16            3.442159
 | i_freq   17            5.715696
 | i_freq   18           10.893989
 | i_freq   19           27.256134
 | i_freq   20          145.030733
 --------------------------------------------
 
  Analytical continuation starts...
 
  Quasi particle energy calculation starts...
 
------------------------------------------------------------------------------------------------------
               GW quasi-particle energy levels
 
               e_qp = e_gs + e_x^ex - e_xc^gs + e_c^nloc
 
  state     occ_num        e_gs        e_x^ex        e_xc^gs        e_c^nloc        e_qp
------------------------------------------------------------------------------------------------------
------------------------------------------------------------------------------------------------------
       1    2.0000    -3967.9237     -361.8499     -224.7833        6.5169    -4098.4734
       2    2.0000    -3967.9237     -361.8499     -224.7833        6.5170    -4098.4734
       3    2.0000     -414.1358     -120.9339      -74.4540        6.1221     -454.4936
       4    2.0000     -414.1358     -120.9339      -74.4540        6.1198     -454.4959
       5    2.0000     -334.4312     -112.9778      -77.2433        5.5652     -364.6005
       6    2.0000     -334.4312     -112.9778      -77.2433        5.5652     -364.6005
       7    2.0000     -334.4312     -112.9778      -77.2433        5.5641     -364.6016
       8    2.0000     -334.4312     -112.9778      -77.2433        5.5641     -364.6016
       9    2.0000     -334.4095     -113.0035      -77.2519        5.5859     -364.5752
      10    2.0000     -334.4095     -113.0034      -77.2518        5.5839     -364.5771
      11    2.0000      -46.6987      -39.9235      -26.1284        9.8629      -50.6309
      12    2.0000      -46.6899      -39.9388      -26.1435        9.8982      -50.5869
      13    2.0000      -27.6560      -31.5691      -23.7707        2.6200      -32.8345
      14    2.0000      -27.6560      -31.5691      -23.7707        2.6200      -32.8345
      15    2.0000      -27.6456      -31.5921      -23.7939        2.5818      -32.8621
      16    2.0000      -27.6456      -31.5921      -23.7939        2.5818      -32.8621
      17    2.0000      -27.6386      -31.5725      -23.7043        2.9926      -32.5143
      18    2.0000      -27.5380      -31.7193      -23.8899        2.9465      -32.4209
      19    2.0000       -4.6288       -8.6898       -6.9524        0.4499       -5.9163
      20    1.9999       -3.0552       -6.7291       -5.9505       -1.0722       -4.9060
      21    0.0000       -2.4713       -4.6717      -10.0874       -1.3438        1.6006
      22    0.0000       -2.4713       -4.6717      -10.0874       -1.3438        1.6006
      23    0.0000       -2.2728       -6.2377      -12.0903       -3.8523       -0.2725
      24    0.0000       -1.8837       -5.8621      -12.5479       -3.7252        1.0769
      25    0.0000       -1.8837       -5.8621      -12.5480       -3.7252        1.0769
      26    0.0000       -1.5799       -6.5878      -13.7980       -3.6522        1.9781
      27    0.0000       -1.5799       -6.5878      -13.7980       -3.6522        1.9781
      28    0.0000       -1.5076       -3.0442       -6.9841       -2.7164       -0.2841
      29    0.0000       -1.5076       -3.0442       -6.9841       -2.7164       -0.2841
      30    0.0000       -1.4643       -5.3169      -11.2978       -2.2072        2.3094
------------------------------------------------------------------------------------------------------
 
   DFT/Hartree-Fock HOMO level (eV):    -2.4713   -2.4713
 
   Quasiparticle HOMO level (eV):        1.6006    1.6006
 
------------------------------------------------------------------------------------------------------
 
          | Total time for transforming the 3-center integrals :        1.071 s
          | Total time for calculating the exchange-correlation
                                  energy matrix elements   :        0.536 s
          | Total time for calculating polarisability      :       10.512 s
          | Total time for calculating self energy 
                        on imaginary frequency axis        :      127.081 s
          | Total time for calculating the quasiparticle 
                        energies                           :        0.000 s

------------------------------------------------------------------------------
  Final output of selected total energy values:

  The following output summarizes some interesting total energy values
  at the end of a run (AFTER all relaxation, molecular dynamics, etc.).

  | Total energy of the DFT / Hartree-Fock s.c.f. calculation      :         -37111.144581816 eV
  | Final zero-broadening corrected energy (caution - metals only) :         -37111.144597616 eV
  | For reference only, the value of 1 Hartree used in FHI-aims is :             27.211384500 eV

  Before relying on these values, please be sure to understand exactly which
  total energy value is referred to by a given number. Different objects may
  all carry the same name 'total energy'. Definitions:

  Total energy of the DFT / Hartree-Fock s.c.f. calculation:
  | Note that this energy does not include ANY quantities calculated after the
  | s.c.f. cycle, in particular not ANY RPA, MP2, etc. many-body perturbation terms.

  Final zero-broadening corrected energy:
  | For metallic systems only, a broadening of the occupation numbers at the Fermi
  | level can be extrapolated back to zero broadening by an electron-gas inspired
  | formula. For all systems that are not real metals, this value can be
  | meaningless and should be avoided.

------------------------------------------------------------------------------
  Methods described in the following list of references were used in this FHI-aims run.
  If you publish the results, please make sure to cite these reference if they apply.
  FHI-aims is an academic code, and for our developers (often, Ph.D. students
  and postdocs), scientific credit in the community is essential.
  Thank you for helping us!

  For any use of FHI-aims, please cite:

    Volker Blum, Ralf Gehrke, Felix Hanke, Paula Havu, Ville Havu,
    Xinguo Ren, Karsten Reuter, and Matthias Scheffler
    'Ab initio molecular simulations with numeric atom-centered orbitals'
    Computer Physics Communications 180, 2175-2196 (2009)
    http://dx.doi.org/10.1016/j.cpc.2009.06.022


  For Hartree-Fock, hybrid functionals, or many-body perturbation theory used in your run, please cite:

    Xinguo Ren, Patrick Rinke, Volker Blum, Juergen Wieferink, Alex Tkatchenko,
    Andrea Sanfilippo, Karsten Reuter, and Matthias Scheffler,
    'Resolution-of-identity approach to Hartree-Fock, hybrid density functionals,
    RPA, MP2, and GW with numeric atom-centered orbital basis functions'
    New Journal of Physics 14, 053020 (2012).
    http://dx.doi.org/10.1088/1367-2630/14/5/053020


  For the real-space grid partitioning and parallelization used in this calculation, please cite:

    Ville Havu, Volker Blum, Paula Havu, and Matthias Scheffler,
    'Efficient O(N) integration for all-electron electronic structure calculation'
    'using numerically tabulated basis functions'
    Journal of Computational Physics 228, 8367-8379 (2009).
    http://dx.doi.org/10.1016/j.jcp.2009.08.008

  Of course, there are many other important community references, e.g., those cited in the
  above references. Our list is limited to references that describe implementations in the
  FHI-aims code. The reason is purely practical (length of this list) - please credit others as well.

 * Warning - angular integration grids had to be adjusted for use with RI_method 'V'.
 * Background: You are using an electronic structure method that requires RI_method 'V'
 * for the resolution of identity of the Coulomb operator. (See Ren et al.,
 * New J. Phys 2012 for details.) This method requires three-center integrations
 * to be carried out on FHI-aims' normal angular and radial integration grids.
 * (See FHI-aims CPC Blum et al. 2009, p. 2183 for grid details and references.)
 * One of the angular grids specified in your control.in file was not large
 * enough for the maximal angular momenta of orbital and product basis functions
 * for its species.
 * This can lead to atomic total energy errors which cancel in energy differences.
 * Effective Sep 22, 2014, we have changed the default behavior of the code to
 * simply 'upgrade' the angular grids internally to a safe setting in this case.
 * Please be sure to NOT mix total energies from before and after the change.

------------------------------------------------------------
          Leaving FHI-aims.
          Date     :  20160315, Time     :  182915.233

          Computational steps:
          | Number of self-consistency cycles          :            8

          Detailed time accounting                     :  max(cpu_time)    wall_clock(cpu1)
          | Total time                                 :      252.256 s         252.774 s
          | Preparation time                           :        0.242 s           0.243 s
          | Grid partitioning                          :        0.033 s           0.033 s
          | Preloading free-atom quantities on grid    :        0.017 s           0.017 s
          | Free-atom superposition energy             :        0.020 s           0.020 s
          | Total time for integrations                :        3.221 s           3.227 s
          | Product basis setup: Total time            :        0.000 s           0.000 s
          | Product basis: | 3-center integrations     :       97.295 s          97.482 s
          | Product basis: | 2-center integrations     :        0.177 s           0.177 s
          | Product basis: | 2-center linear algebra   :        4.806 s           4.816 s
          | Product basis: | 3-center x 2-center       :        3.458 s           3.465 s
          | Transforming ovlp_3fn to ovlp_3KS          :        1.071 s           1.074 s
          | Total time for evaluating scr. Coulomb matr:        0.000 s           0.000 s
          | Total time for GW self-energy              :      137.594 s         137.855 s
          | Total time for solution of K.-S. equations :        0.246 s           0.245 s
          | Total time for density update              :        1.921 s           1.924 s
          | Total time for mixing                      :        0.033 s           0.034 s
          | Total time for Hartree multipole update    :        0.033 s           0.033 s
          | Total time for Hartree multipole sum       :        0.253 s           0.253 s
          | Total time for total energy evaluation     :        0.001 s           0.003 s
          | Total time for scaled ZORA corrections     :        0.000 s           0.000 s

          Have a nice day.
------------------------------------------------------------
