  MPI-parallelism will be employed.
------------------------------------------------------------
          Invoking FHI-aims ...
          Version 151211
          Git rev. (modified): d01ffe6 [mbddev] implement print out of MBD bands
          Compiled on 2015/12/11 at 14:59:51 on host theobook27.

          When using FHI-aims, please cite the following reference:

          Volker Blum, Ralf Gehrke, Felix Hanke, Paula Havu,
          Ville Havu, Xinguo Ren, Karsten Reuter, and Matthias Scheffler,
          'Ab Initio Molecular Simulations with Numeric Atom-Centered Orbitals: FHI-aims',
          Computer Physics Communications 180, 2175-2196 (2009)

          For any questions about FHI-aims, please visit the aimsclub website
          with its forums and wiki. Contributions to both the forums and the
          wiki are warmly encouraged - they are for you, and everyone is welcome there.

------------------------------------------------------------

  Date     :  20160203, Time     :  150956.045
  Time zero on CPU 1             :   0.200000000000000E-01  s.
  Internal wall clock time zero  :           223744196.045  s.

  Using        2 parallel tasks.
  Task        0 on host theobook27 reporting.
  Task        1 on host theobook27 reporting.

  Performing system and environment tests:
  | Environment variable OMP_NUM_THREADS correctly set to 1.
  | Stacksize not measured: no C compiler
  | Checking for scalapack...
  | Testing pdtran()...
  | All pdtran() tests passed.

  Obtaining array dimensions for all initial allocations:
  
  -----------------------------------------------------------------------
  Parsing control.in (first pass over file, find array dimensions only).
  The contents of control.in will be repeated verbatim below
  unless switched off by setting 'verbatim_writeout .false.' .
  in the first line of control.in .
  -----------------------------------------------------------------------
  
    xc                 pw-lda
    spin               none
    relativistic       none
    occupation_type    gaussian 0.01
    sc_accuracy_rho    1E-5
    sc_accuracy_eev    1E-3
    sc_accuracy_etot   1E-6
    k_grid             8 8 8
    output band  0.5   0.5   0.5    0.0   0.0   0.0    15  L     Gamma
    output band  0.0   0.0   0.0    0.0   0.5   0.5    15  Gamma X
    output band  0.0   0.5   0.5    0.25  0.5   0.75   15  X     W
    output band  0.25  0.5   0.75   0.375 0.375 0.75   15  W     K
  ################################################################################
  #
  #  FHI-aims code project
  #  VB, Fritz-Haber Institut, 2009
  #
  #  Suggested "light" defaults for Si atom (to be pasted into control.in file)
  #  Be sure to double-check any results obtained with these settings for post-processing,
  #  e.g., with the "tight" defaults and larger basis sets.
  #
  ################################################################################
    species        Si
  #     global species definitions
      nucleus             14
      mass                28.0855
  #
      l_hartree           4
  #
      cut_pot             3.5          1.5  1.0
      basis_dep_cutoff    1e-4
  #
      radial_base         42 5.0
      radial_multiplier   1
      angular_grids       specified
        division   0.5866   50
        division   0.9616  110
        division   1.2249  194
        division   1.3795  302
  #      division   1.4810  434
  #      division   1.5529  590
  #      division   1.6284  770
  #      division   1.7077  974
  #      division   2.4068 1202
  #      outer_grid   974
        outer_grid 302
  ################################################################################
  #
  #  Definition of "minimal" basis
  #
  ################################################################################
  #     valence basis states
      valence      3  s   2.
      valence      3  p   2.
  #     ion occupancy
      ion_occ      3  s   1.
      ion_occ      3  p   1.
  ################################################################################
  #
  #  Suggested additional basis functions. For production calculations,
  #  uncomment them one after another (the most important basis functions are
  #  listed first).
  #
  #  Constructed for dimers: 1.75 A, 2.0 A, 2.25 A, 2.75 A, 3.75 A
  #
  ################################################################################
  #  "First tier" - improvements: -571.96 meV to -37.03 meV
       hydro 3 d 4.2
       hydro 2 p 1.4
  #     hydro 4 f 6.2
       ionic 3 s auto
  #  "Second tier" - improvements: -16.76 meV to -3.03 meV
  #     hydro 3 d 9
  #     hydro 5 g 9.4
  #     hydro 4 p 4
  #     hydro 1 s 0.65
  #  "Third tier" - improvements: -3.89 meV to -0.60 meV
  #     ionic 3 d auto
  #     hydro 3 s 2.6
  #     hydro 4 f 8.4
  #     hydro 3 d 3.4
  #     hydro 3 p 7.8
  #  "Fourth tier" - improvements: -0.33 meV to -0.11 meV
  #     hydro 2 p 1.6
  #     hydro 5 g 10.8
  #     hydro 5 f 11.2
  #     hydro 3 d 1
  #     hydro 4 s 4.5
  #  Further basis functions that fell out of the optimization - noise
  #  level... < -0.08 meV
  #     hydro 4 d 6.6
  #     hydro 5 g 16.4
  #     hydro 4 d 9
  
  -----------------------------------------------------------------------
  Completed first pass over input file control.in .
  -----------------------------------------------------------------------
  
  
  -----------------------------------------------------------------------
  Parsing geometry.in (first pass over file, find array dimensions only).
  The contents of geometry.in will be repeated verbatim below
  unless switched off by setting 'verbatim_writeout .false.' .
  in the first line of geometry.in .
  -----------------------------------------------------------------------
  
  lattice_vector 0.000 2.708 2.708
  lattice_vector 2.708 0.000 2.708
  lattice_vector 2.708 2.708 0.000
  atom_frac 0.00 0.00 0.00 Si
  atom_frac 0.25 0.25 0.25 Si
  
  -----------------------------------------------------------------------
  Completed first pass over input file geometry.in .
  -----------------------------------------------------------------------
  

  Basic array size parameters:
  | Number of species                 :        1
  | Number of atoms                   :        2
  | Number of lattice vectors         :        3
  | Max. basis fn. angular momentum   :        2
  | Max. atomic/ionic basis occupied n:        3
  | Max. number of basis fn. types    :        3
  | Max. radial fns per species/type  :        5
  | Max. logarithmic grid size        :     1346
  | Max. radial integration grid size :       42
  | Max. angular integration grid size:      302
  | Max. angular grid division number :        8
  | Radial grid for Hartree potential :     1346
  | Number of spin channels           :        1

------------------------------------------------------------
          Reading file control.in.
------------------------------------------------------------
  XC: Using Perdew-Wang parametrisation of Ceperley-Alder LDA.
  Spin treatment: No spin polarisation.
  Non-relativistic treatment of kinetic energy.
  Occupation type: Gaussian broadening, width =   0.100000E-01 eV.
  Convergence accuracy of self-consistent charge density:  0.1000E-04
  Convergence accuracy of sum of eigenvalues:  0.1000E-02
  Convergence accuracy of total energy:  0.1000E-05
  Found k-point grid:         8         8         8

  Plot band    1
  | begin  0.500000  0.500000  0.500000
  | end    0.000000  0.000000  0.000000
  | number of points:   15

  Plot band    2
  | begin  0.000000  0.000000  0.000000
  | end    0.000000  0.500000  0.500000
  | number of points:   15

  Plot band    3
  | begin  0.000000  0.500000  0.500000
  | end    0.250000  0.500000  0.750000
  | number of points:   15

  Plot band    4
  | begin  0.250000  0.500000  0.750000
  | end    0.375000  0.375000  0.750000
  | number of points:   15
 
  Reading configuration options for species Si                  .
  | Found nuclear charge :  14.0000
  | Found atomic mass :    28.0855000000000      amu
  | Found l_max for Hartree potential  :   4
  | Found cutoff potl. onset [A], width [A], scale factor :    3.50000    1.50000    1.00000
  | Threshold for basis-dependent cutoff potential is   0.100000E-03
  | Found data for basic radial integration grid :    42 points, outermost radius =    5.000 A
  | Found multiplier for basic radial grid :   1
  | Found angular grid specification: user-specified.
  | Specified grid contains     5 separate shells.
  | Check grid settings after all constraints further below.
  | Found free-atom valence shell :  3 s   2.000
  | Found free-atom valence shell :  3 p   2.000
  | Found free-ion valence shell :  3 s   1.000
  | Found free-ion valence shell :  3 p   1.000
  | Found hydrogenic basis function :  3 d   4.200
  | Found hydrogenic basis function :  2 p   1.400
  | Found ionic basis function :  3 s , default cutoff radius.
  Species Si                  : Missing cutoff potential type.
  Defaulting to exp(1/x)/(1-x)^2 type cutoff potential.
  Species Si: No 'logarithmic' tag. Using default grid for free atom:
  | Default logarithmic grid data [bohr] : 0.1000E-03 0.1000E+03 0.1012E+01
  | Will include ionic basis functions of  2.0-fold positive Si                   ion.
  Species Si: On-site basis accuracy parameter (for Gram-Schmidt orthonormalisation) not specified.
  Using default value basis_acc =  0.1000000E-03.
  Species Si                  : Using default innermost maximum threshold i_radial=  2 for radial functions.
  Species Si                  : Default cutoff onset for free atom density etc. : 0.35000000E+01 AA.
  Species Si                  : Basic radial grid will be enhanced according to radial_multiplier =   1, to contain    42 grid points.
 
  Finished reading input file 'control.in'. Consistency checks are next.
 
  Target number of points in a grid batch is not set. Defaulting to  100
  Method for grid partitioning is not set. Defaulting to parallel hash+maxmin partitioning.
  Batch size limit is not set. Defaulting to    200
  By default, will store active basis functions for each batch.
  If in need of memory, prune_basis_once .false. can be used to disable this option.
  communication_type for Hartree potential was not specified.
  Defaulting to calc_hartree .
  Defaulting to Pulay charge density mixer.
  Pulay mixer: Number of relevant iterations not set.
  Defaulting to    8 iterations.
  Pulay mixer: Number of initial linear mixing iterations not set.
  Defaulting to    0 iterations.
  Work space size for distributed Hartree potential not set.
  Defaulting to   0.200000E+03 MB.
  Mixing parameter for charge density mixing has not been set.
  Using default: charge_mix_param =     0.2000.
  Algorithm-dependent basis array size parameters:
  | n_max_pulay                         :        8
  Maximum number of self-consistency iterations not provided.
  Presetting  1000 iterations.
  Calculation of forces was not defined in control.in. No forces will be calculated.
  Geometry relaxation not requested: no relaxation will be performed.
  No accuracy limit for integral partition fn. given. Defaulting to  0.1000E-14.
  No threshold value for u(r) in integrations given. Defaulting to  0.1000E-05.
  No accuracy for occupation numbers given. Defaulting to  0.1000E-07.
  No threshold value for occupation numbers given. Defaulting to  0.0000E+00.
  No accuracy for fermi level given. Defaulting to  0.1000E-19.
  Maximum # of iterations to find E_F not set. Defaulting to  200.
  Preferred method for the eigenvalue solver ('KS_method') not specified in 'control.in'.
  Defaulting to serial version, 'lapack_fast', since more k-points than CPUs available.
  Will not use alltoall communication since running on < 1024 CPUs.
  Threshold for basis singularities not set.
  Default threshold for basis singularities:  0.1000E-04
  partition_type (choice of integration weights) for integrals was not specified.
  | Using a version of the partition function of Stratmann and coworkers ('stratmann_smoother').
  | At each grid point, the set of atoms used to build the partition table is smoothly restricted to
  | only those atoms whose free-atom density would be non-zero at that grid point.
  Partitioning for Hartree potential was not defined. Using partition_type for integrals.
  | Adjusted default value of keyword multip_moments_threshold to:       0.10000000E-11
  | This value may affect high angular momentum components of the Hartree potential in periodic systems.
  Angular momentum expansion for Kerker preconditioner not set explicitly.
  | Using default value of   0
  No explicit requirement for turning off preconditioner.
  | By default, it will be turned off when the charge convergence reaches
  | sc_accuracy_rho  =   0.100000E-04
  | sc_accuracy_eev  =   0.100000E-02
  | sc_accuracy_etot =   0.100000E-05
  No special mixing parameter while Kerker preconditioner is on.
  Using default: charge_mix_param =     0.2000.
  No q(lm)/r^(l+1) cutoff set for long-range Hartree potential.
  | Using default value of  0.100000E-09 .
  | Verify using the multipole_threshold keyword.
  Defaulting to new monopole extrapolation.
  Density update method: automatic selection selected.
  Using density matrix based charge density update.
  Using density matrix based charge density update.
  Using packed matrix style: index .
  Defaulting to use time-reversal symmetry for k-point grid.
------------------------------------------------------------


------------------------------------------------------------
          Reading geometry description geometry.in.
------------------------------------------------------------
 * Attention. You are trying to treat an element beyond Ne (Z=10) without
 * accounting for relativity. This will lead to slight deviations from the true
 * physics of the system. Check your results if in doubt.
  Input structure read successfully.
  The structure contains        2 atoms,  and a total of         28.000 electrons.

  Input geometry:
  | Unit cell:
  |         0.000000         2.708000         2.708000
  |         2.708000         0.000000         2.708000
  |         2.708000         2.708000         0.000000
  | Atomic structure:
  |       Atom                x [A]            y [A]            z [A]
  |    1: Species Si             0.000000         0.000000         0.000000
  |    2: Species Si             1.354000         1.354000         1.354000
  |

  | The smallest distance between any two atoms is         2.34519679 AA.
  |
  | The first atom of this pair is atom number                      1 .
  | The second atom of this pair is atom number                     2 .
  | Wigner-Seitz cell of the first atom image           0     0     1 .
  | (The Wigner-Seitz cell of the second atom is 0 0 0  by definition.)

  Quantities derived from the lattice vectors:
  | Reciprocal lattice vector 1: -1.160115  1.160115  1.160115
  | Reciprocal lattice vector 2:  1.160115 -1.160115  1.160115
  | Reciprocal lattice vector 3:  1.160115  1.160115 -1.160115
  | Unit cell volume                               :   0.397170E+02  A^3

  Number of empty states per atom not set in control.in - providing a guess from actual geometry.
  | Total number of empty states used during s.c.f. cycle:        6
  If you use a very high smearing, use empty_states (per atom!) in control.in to increase this value.

  Structure-dependent array size parameters: 
  | Maximum number of distinct radial functions  :        8
  | Maximum number of basis functions            :       36
  | Number of Kohn-Sham states (occupied + empty):       20
------------------------------------------------------------

------------------------------------------------------------
          Preparing all fixed parts of the calculation.
------------------------------------------------------------
  Determining machine precision:
    2.225073858507201E-308
  Setting up grids for atomic and cluster calculations.

  Creating wave function, potential, and density for free atoms.

  Species: Si

  List of occupied orbitals and eigenvalues:
    n    l              occ      energy [Ha]    energy [eV]
    1    0           2.0000       -65.172154     -1773.4245
    2    0           2.0000        -5.063250      -137.7780
    3    0           2.0000        -0.389854       -10.6085
    2    1           6.0000        -3.503088       -95.3239
    3    1           2.0000        -0.144317        -3.9271

  Creating fixed part of basis set: Ionic, confined, hydrogenic.
 
  Si                   ion:

  List of free ionic orbitals and eigenvalues:
    n    l      energy [Ha]    energy [eV]
    1    0       -66.042358     -1797.1040
    2    0        -5.909940      -160.8177
    3    0        -1.075552       -29.2673
    2    1        -4.350945      -118.3952
    3    1        -0.781825       -21.2745


  List of ionic basis orbitals and eigenvalues:
    n    l      energy [Ha]    energy [eV]    outer radius [A]
    3    0        -1.075532       -29.2667       4.214062

 
  Si                   hydrogenic:
 
  List of hydrogenic basis orbitals: 
    n    l      effective z      eigenvalue [eV]  inner max. [A]     outer max. [A]     outer radius [A]   
    3    2         4.200000       -26.6624           1.139231           1.139231           4.534782
    2    1         1.400000        -6.4613           1.472672           1.472672           4.590560
 

  Adding cutoff potential to free-atom effective potential.
  Creating atomic-like basis functions for current effective potential.

  Species Si                  :

  List of atomic basis orbitals and eigenvalues:
    n    l      energy [Ha]    energy [eV]    outer radius [A]
    1    0       -65.172154     -1773.4245       0.789468
    2    0        -5.063250      -137.7780       2.815114
    3    0        -0.389854       -10.6085       4.534782
    2    1        -3.503088       -95.3239       3.259919
    3    1        -0.144317        -3.9271       4.590560

  Assembling full basis from fixed parts.
  | Species Si :   atomic orbital   1 s accepted.
  | Species Si :   atomic orbital   2 s accepted.
  | Species Si :    ionic orbital   3 s accepted.
  | Species Si :   atomic orbital   3 s accepted.
  | Species Si :   atomic orbital   2 p accepted.
  | Species Si :   atomic orbital   3 p accepted.
  | Species Si :    hydro orbital   2 p accepted.
  | Species Si :    hydro orbital   3 d accepted.
 
  Basis size parameters after reduction:
  | Total number of radial functions:        8
  | Total number of basis functions :       36
 
  Testing on-site integration grid accuracy.
  |  Species  Function  <phi|h_atom|phi> (log., in eV)  <phi|h_atom|phi> (rad., in eV)
           1        1              -1773.4245382485              -1773.4238465557
           1        2               -137.7780422334               -137.7780383875
           1        3                -10.2584966028                -10.2583645750
           1        4                  5.0172755718                  4.9378117642 ***
           1        5                -95.3238759277                -95.3238759093
           1        6                 -3.9367923774                 -3.9521708118
           1        7                  6.3364624620                  6.1540591176 ***
           1        8                  6.2680607190                  6.2659437726
 * Note: Onsite integrals marked "***" above are less accurate than
 * onsite_accuracy_threshold =    0.03000 eV. Usually, this is harmless.
 * When in doubt, tighten the "radial" and/or "radial_multiplier" flags to check.

  Preparing densities etc. for the partition functions (integrals / Hartree potential).

  Preparations completed.
  max(cpu_time)          :      0.180 s.
  Wall clock time (cpu1) :      0.219 s.
------------------------------------------------------------

------------------------------------------------------------
          Begin self-consistency loop: Initialization.

          Date     :  20160203, Time     :  150956.303
------------------------------------------------------------

  Initializing index lists of integration centers etc. from given atomic structure:
  Mapping all atomic coordinates to central unit cell.

  Initializing the k-points
          Using symmetry for reducing the k-points
  | k-points reduced from:      512 to      260
  | Number of k-points                             :       260
  The eigenvectors in the calculations are COMPLEX.
  | K-points in task   0:       130
  | K-points in task   1:       130
  | Number of basis functions in the Hamiltonian integrals :      1472
  | Number of basis functions in a single unit cell        :        36
  | Number of centers in hartree potential         :       480
  | Number of centers in hartree multipole         :       318
  | Number of centers in electron density summation:       198
  | Number of centers in basis integrals           :       228
  | Number of centers in integrals                 :       101
  | Number of centers in hamiltonian               :       198
  | Consuming        455 KiB for k_phase.
  | Number of super-cells (origin) [n_cells]                     :        1331
  | Number of super-cells (after PM_index) [n_cells]             :         112
  | Number of super-cells in hamiltonian [n_cells_in_hamiltonian]:         112
  | Size of matrix packed + index :       43359
  Partitioning the integration grid into batches with parallel hashing+maxmin method.
  | Number of batches:      166
  | Maximal batch size:     108
  | Minimal batch size:      50
  | Average batch size:      67.518
  | Standard deviation of batch sizes:      17.984

  Integration load balanced across     2 MPI tasks.
  Work distribution over tasks is as follows:
  Task     0 has       5577 integration points.
  Task     1 has       5631 integration points.
  Initializing partition tables, free-atom densities, potentials, etc. across the integration grid (initialize_grid_storage).
  | initialize_grid_storage: Actual outermost partition radius vs. multipole_radius_free
  | (-- VB: in principle, multipole_radius_free should be larger, hence this output)
  | Species        1: Confinement radius =              4.999999999999999 AA, multipole_radius_free =              5.000694715736543 AA.
  | Species        1: outer_partition_radius set to              5.000694715736543 AA .
  | Original list of interatomic distances with         228 x        228 entries is created.
  | Net number of integration points:    11208
  | of which are non-zero points    :     9772
  | Numerical average free-atom electrostatic potential    :    -13.26986054 eV
  Obtaining max. number of non-zero basis functions in each batch (get_n_compute_maxes).
  | Maximal number of non-zero basis functions:      487 in task     0
  | Maximal number of non-zero basis functions:      476 in task     1
  Integrating Hamiltonian matrix: batch-based integration.
  Time summed over all CPUs for integration: real work        1.318 s, elapsed        1.469 s
  Integrating overlap matrix.
  Transforming overlap matrix and checking for singularities.
  Overlap matrix is nonsingular at first k-point:
  | Lowest eigenvalue:  0.407210E-02
  Time summed over all CPUs for integration: real work        0.856 s, elapsed        0.977 s
  Decreasing sparse matrix size:
   Tolerance:  9.999999824516700E-014
   Hamiltonian matrix
  | Array has    37037 nonzero elements out of    43359 elements
  | Sparsity factor is 0.146
   Overlap matrix
  | Array has    36108 nonzero elements out of    43359 elements
  | Sparsity factor is 0.167
  New size of hamiltonian matrix:       37295

  Updating Kohn-Sham eigenvalues, eigenvectors, occupation numbers, and Fermi level.
  Solving generalized eigenproblem
  Determining occupation numbers for Kohn-Sham eigenstates.
  | Chemical potential (Fermi level) in eV                 : -.59809581E+01
  | Error in electron count due to remaining E_F inaccuracy: 0.00000000E+00
  | Maximum occupation number of highest empty state:  0.00E+00

  Writing Kohn-Sham eigenvalues.
  K-point:       1 at    0.000000    0.000000    0.000000 (in units of recip. lattice)

  State    Occupation    Eigenvalue [Ha]    Eigenvalue [eV]
      1       2.00000         -65.194604        -1774.03544
      2       2.00000         -65.194604        -1774.03544
      3       2.00000          -5.090697         -138.52492
      4       2.00000          -5.090372         -138.51608
      5       2.00000          -3.530507          -96.06999
      6       2.00000          -3.530507          -96.06999
      7       2.00000          -3.530507          -96.06999
      8       2.00000          -3.529844          -96.05195
      9       2.00000          -3.529844          -96.05195
     10       2.00000          -3.529844          -96.05195
     11       2.00000          -0.669178          -18.20925
     12       2.00000          -0.234864           -6.39098
     13       2.00000          -0.234864           -6.39098
     14       2.00000          -0.234864           -6.39098
     15       0.00000          -0.130726           -3.55723
     16       0.00000          -0.130726           -3.55723
     17       0.00000          -0.130726           -3.55723
     18       0.00000          -0.104647           -2.84760
     19       0.00000           0.064052            1.74295
     20       0.00000           0.064052            1.74295

  What follows are estimated values for band gap, HOMO, LUMO, etc.
  | They are estimated on a discrete k-point grid and not necessarily exact.
  | For converged numbers, create a DOS and/or band structure plot on a denser k-grid.

  Highest occupied state (VBM) at     -6.39098354 eV (relative to internal zero)
  | Occupation number:      2.00000000
  | K-point:       1 at    0.000000    0.000000    0.000000 (in units of recip. lattice)

  Lowest unoccupied state (CBM) at    -5.47673305 eV (relative to internal zero)
  | Occupation number:      0.00000000
  | K-point:     133 at    0.375000    0.000000    0.375000 (in units of recip. lattice)

  ESTIMATED overall HOMO-LUMO gap:      0.91425049 eV between HOMO at k-point 1 and LUMO at k-point 133
  | This appears to be an indirect band gap.
  | Smallest direct gap :      2.83375437 eV for k_point 1 at    0.375000    0.000000    0.375000 (in units of recip. lattice)
  The gap value is above 0.2 eV. Unless you are using a very sparse k-point grid,
  this system is most likely an insulator or a semiconductor.
  Calculating total energy contributions from superposition of free atom densities.

  Total energy components:
  | Sum of eigenvalues            :        -326.83824862 Ha       -8893.72125241 eV
  | XC energy correction          :         -39.55603818 Ha       -1076.37456435 eV
  | XC potential correction       :          52.25884153 Ha        1422.03543028 eV
  | Free-atom electrostatic energy:        -262.69335228 Ha       -7148.24981449 eV
  | Hartree energy correction     :           0.00000000 Ha           0.00000000 eV
  | Entropy correction            :           0.00000000 Ha           0.00000000 eV
  | ---------------------------
  | Total energy                  :        -576.82879756 Ha      -15696.31020096 eV
  | Total energy, T -> 0          :        -576.82879756 Ha      -15696.31020096 eV  <-- do not rely on this value for anything but (periodic) metals
  | Electronic free energy        :        -576.82879756 Ha      -15696.31020096 eV

  Derived energy quantities:
  | Kinetic energy                :         575.53720072 Ha       15661.16406285 eV
  | Electrostatic energy          :       -1112.80996009 Ha      -30281.09969946 eV
  | Energy correction for multipole
  | error in Hartree potential    :           0.00000000 Ha           0.00000000 eV
  | Sum of eigenvalues per atom                           :       -4446.86062620 eV
  | Total energy (T->0) per atom                          :       -7848.15510048 eV  <-- do not rely on this value for anything but (periodic) metals
  | Electronic free energy per atom                       :       -7848.15510048 eV
  Initialize hartree_potential_storage
  Max. number of atoms included in rho_multipole:            2

  End scf initialization - timings             :  max(cpu_time)    wall_clock(cpu1)
  | Time for scf. initialization               :        2.140 s           2.311 s
  | Boundary condition initialization          :        0.110 s           0.106 s
  | Integration                                :        1.100 s           1.236 s
  | Solution of K.-S. eqns.                    :        0.440 s           0.459 s
  | Grid partitioning                          :        0.060 s           0.059 s
  | Preloading free-atom quantities on grid    :        0.010 s           0.003 s
  | Free-atom superposition energy             :        0.040 s           0.050 s
  | Total energy evaluation                    :        0.000 s           0.003 s
------------------------------------------------------------

------------------------------------------------------------
          Begin self-consistency iteration #    1

  Date     :  20160203, Time     :  150958.614
------------------------------------------------------------
  Evaluating new KS density using the density matrix
  Evaluating density matrix
  Time summed over all CPUs for getting density from density matrix: real work        1.225 s, elapsed        1.419 s
  Integration grid: deviation in total charge (<rho> - N_e) =   2.131628E-14
  Pulay mixing of updated and previous charge densities.

  Evaluating partitioned Hartree potential by multipole expansion.
  | Analytical far-field extrapolation by fixed multipoles:
  | Hartree multipole sum: apparent total charge =   0.769773E-03
  Summing up the Hartree potential.
  | Estimated reciprocal-space cutoff momentum G_max:         3.15033928 bohr^-1 .
  | Reciprocal lattice points for long-range Hartree potential:     136
  Time summed over all CPUs for potential: real work        0.798 s, elapsed        0.904 s
  | RMS charge density error from multipole expansion :   0.214951E-02
  | Average real-space part of the electrostatic potential :      0.07533125 eV

  Integrating Hamiltonian matrix: batch-based integration.
  Time summed over all CPUs for integration: real work        1.199 s, elapsed        1.391 s

  Updating Kohn-Sham eigenvalues, eigenvectors, occupation numbers, and Fermi level.
  Solving generalized eigenproblem
  Determining occupation numbers for Kohn-Sham eigenstates.
  | Chemical potential (Fermi level) in eV                 : -.61902322E+01
  | Error in electron count due to remaining E_F inaccuracy: 0.00000000E+00
  | Maximum occupation number of highest empty state:  0.00E+00

  Writing Kohn-Sham eigenvalues.
  K-point:       1 at    0.000000    0.000000    0.000000 (in units of recip. lattice)

  State    Occupation    Eigenvalue [Ha]    Eigenvalue [eV]
      1       2.00000         -65.185777        -1773.79524
      2       2.00000         -65.185777        -1773.79524
      3       2.00000          -5.084031         -138.34353
      4       2.00000          -5.083706         -138.33468
      5       2.00000          -3.523609          -95.88229
      6       2.00000          -3.523609          -95.88229
      7       2.00000          -3.523609          -95.88229
      8       2.00000          -3.522946          -95.86425
      9       2.00000          -3.522946          -95.86425
     10       2.00000          -3.522946          -95.86425
     11       2.00000          -0.666194          -18.12805
     12       2.00000          -0.230573           -6.27421
     13       2.00000          -0.230573           -6.27421
     14       2.00000          -0.230573           -6.27421
     15       0.00000          -0.128543           -3.49782
     16       0.00000          -0.128543           -3.49782
     17       0.00000          -0.128543           -3.49782
     18       0.00000          -0.100122           -2.72446
     19       0.00000           0.066252            1.80281
     20       0.00000           0.066252            1.80281

  What follows are estimated values for band gap, HOMO, LUMO, etc.
  | They are estimated on a discrete k-point grid and not necessarily exact.
  | For converged numbers, create a DOS and/or band structure plot on a denser k-grid.

  Highest occupied state (VBM) at     -6.27421466 eV (relative to internal zero)
  | Occupation number:      2.00000000
  | K-point:       1 at    0.000000    0.000000    0.000000 (in units of recip. lattice)

  Lowest unoccupied state (CBM) at    -5.44413367 eV (relative to internal zero)
  | Occupation number:      0.00000000
  | K-point:      30 at    0.000000    0.625000    0.625000 (in units of recip. lattice)

  ESTIMATED overall HOMO-LUMO gap:      0.83008099 eV between HOMO at k-point 1 and LUMO at k-point 30
  | This appears to be an indirect band gap.
  | Smallest direct gap :      2.77639484 eV for k_point 1 at    0.000000    0.625000    0.625000 (in units of recip. lattice)
  The gap value is above 0.2 eV. Unless you are using a very sparse k-point grid,
  this system is most likely an insulator or a semiconductor.

  Total energy components:
  | Sum of eigenvalues            :        -326.66716369 Ha       -8889.06579459 eV
  | XC energy correction          :         -39.56667653 Ha       -1076.66404854 eV
  | XC potential correction       :          52.27286079 Ha        1422.41691375 eV
  | Free-atom electrostatic energy:        -262.69335228 Ha       -7148.24981449 eV
  | Hartree energy correction     :          -0.17172945 Ha          -4.67299615 eV
  | Entropy correction            :           0.00000000 Ha           0.00000000 eV
  | ---------------------------
  | Total energy                  :        -576.82606117 Ha      -15696.23574002 eV
  | Total energy, T -> 0          :        -576.82606117 Ha      -15696.23574002 eV  <-- do not rely on this value for anything but (periodic) metals
  | Electronic free energy        :        -576.82606117 Ha      -15696.23574002 eV

  Derived energy quantities:
  | Kinetic energy                :         575.56759990 Ha       15661.99126674 eV
  | Electrostatic energy          :       -1112.82698454 Ha      -30281.56295822 eV
  | Energy correction for multipole
  | error in Hartree potential    :           0.00282642 Ha           0.07691085 eV
  | Sum of eigenvalues per atom                           :       -4444.53289729 eV
  | Total energy (T->0) per atom                          :       -7848.11787001 eV  <-- do not rely on this value for anything but (periodic) metals
  | Electronic free energy per atom                       :       -7848.11787001 eV

  Self-consistency convergence accuracy:
  | Change of charge density      :  0.1069E+00
  | Change of sum of eigenvalues  :  0.4655E+01 eV
  | Change of total energy        :  0.7446E-01 eV

  End self-consistency iteration #     1       :  max(cpu_time)    wall_clock(cpu1)
  | Time for this iteration                    :        2.020 s           2.174 s
  | Charge density update                      :        0.710 s           0.751 s
  | Density mixing & preconditioning           :        0.050 s           0.063 s
  | Hartree multipole update                   :        0.010 s           0.002 s
  | Hartree multipole summation                :        0.390 s           0.459 s
  | Integration                                :        0.670 s           0.697 s
  | Solution of K.-S. eqns.                    :        0.190 s           0.202 s
  | Total energy evaluation                    :        0.000 s           0.000 s
------------------------------------------------------------

------------------------------------------------------------
          Begin self-consistency iteration #    2

  Date     :  20160203, Time     :  151000.788
------------------------------------------------------------
  Evaluating new KS density using the density matrix
  Evaluating density matrix
  Time summed over all CPUs for getting density from density matrix: real work        1.186 s, elapsed        1.353 s
  Integration grid: deviation in total charge (<rho> - N_e) =  -4.618528E-14
  Pulay mixing of updated and previous charge densities.

  Evaluating partitioned Hartree potential by multipole expansion.
  | Analytical far-field extrapolation by fixed multipoles:
  | Hartree multipole sum: apparent total charge =   0.358927E-02
  Summing up the Hartree potential.
  Time summed over all CPUs for potential: real work        0.796 s, elapsed        0.905 s
  | RMS charge density error from multipole expansion :   0.100756E-01
  | Average real-space part of the electrostatic potential :      0.33836828 eV

  Integrating Hamiltonian matrix: batch-based integration.
  Time summed over all CPUs for integration: real work        1.232 s, elapsed        1.404 s

  Updating Kohn-Sham eigenvalues, eigenvectors, occupation numbers, and Fermi level.
  Solving generalized eigenproblem
  Determining occupation numbers for Kohn-Sham eigenstates.
  | Chemical potential (Fermi level) in eV                 : -.53794825E+01
  | Error in electron count due to remaining E_F inaccuracy: 0.00000000E+00
  | Maximum occupation number of highest empty state:  0.00E+00

  What follows are estimated values for band gap, HOMO, LUMO, etc.
  | They are estimated on a discrete k-point grid and not necessarily exact.
  | For converged numbers, create a DOS and/or band structure plot on a denser k-grid.

  Highest occupied state (VBM) at     -5.84366069 eV (relative to internal zero)
  | Occupation number:      2.00000000
  | K-point:       1 at    0.000000    0.000000    0.000000 (in units of recip. lattice)

  Lowest unoccupied state (CBM) at    -5.31112462 eV (relative to internal zero)
  | Occupation number:      0.00000000
  | K-point:      30 at    0.000000    0.625000    0.625000 (in units of recip. lattice)

  ESTIMATED overall HOMO-LUMO gap:      0.53253606 eV between HOMO at k-point 1 and LUMO at k-point 30
  | This appears to be an indirect band gap.
  | Smallest direct gap :      2.56352851 eV for k_point 1 at    0.000000    0.625000    0.625000 (in units of recip. lattice)
  The gap value is above 0.2 eV. Unless you are using a very sparse k-point grid,
  this system is most likely an insulator or a semiconductor.

  Total energy components:
  | Sum of eigenvalues            :        -326.09798516 Ha       -8873.57765879 eV
  | XC energy correction          :         -39.60888970 Ha       -1077.81272733 eV
  | XC potential correction       :          52.32845018 Ha        1423.92957821 eV
  | Free-atom electrostatic energy:        -262.69335228 Ha       -7148.24981449 eV
  | Hartree energy correction     :          -0.75053093 Ha         -20.42298583 eV
  | Entropy correction            :           0.00000000 Ha           0.00000000 eV
  | ---------------------------
  | Total energy                  :        -576.82230789 Ha      -15696.13360822 eV
  | Total energy, T -> 0          :        -576.82230789 Ha      -15696.13360822 eV  <-- do not rely on this value for anything but (periodic) metals
  | Electronic free energy        :        -576.82230789 Ha      -15696.13360822 eV

  Derived energy quantities:
  | Kinetic energy                :         575.60923003 Ha       15663.12408020 eV
  | Electrostatic energy          :       -1112.82264822 Ha      -30281.44496109 eV
  | Energy correction for multipole
  | error in Hartree potential    :           0.01324776 Ha           0.36048992 eV
  | Sum of eigenvalues per atom                           :       -4436.78882940 eV
  | Total energy (T->0) per atom                          :       -7848.06680411 eV  <-- do not rely on this value for anything but (periodic) metals
  | Electronic free energy per atom                       :       -7848.06680411 eV

  Self-consistency convergence accuracy:
  | Change of charge density      :  0.8432E-01
  | Change of sum of eigenvalues  :  0.1549E+02 eV
  | Change of total energy        :  0.1021E+00 eV

  End self-consistency iteration #     2       :  max(cpu_time)    wall_clock(cpu1)
  | Time for this iteration                    :        1.950 s           2.139 s
  | Charge density update                      :        0.670 s           0.717 s
  | Density mixing & preconditioning           :        0.050 s           0.059 s
  | Hartree multipole update                   :        0.000 s           0.002 s
  | Hartree multipole summation                :        0.400 s           0.458 s
  | Integration                                :        0.630 s           0.703 s
  | Solution of K.-S. eqns.                    :        0.190 s           0.199 s
  | Total energy evaluation                    :        0.000 s           0.000 s
------------------------------------------------------------

------------------------------------------------------------
          Begin self-consistency iteration #    3

  Date     :  20160203, Time     :  151002.927
------------------------------------------------------------
  Evaluating new KS density using the density matrix
  Evaluating density matrix
  Time summed over all CPUs for getting density from density matrix: real work        1.169 s, elapsed        1.362 s
  Integration grid: deviation in total charge (<rho> - N_e) =  -7.105427E-15
  Pulay mixing of updated and previous charge densities.

  Evaluating partitioned Hartree potential by multipole expansion.
  | Analytical far-field extrapolation by fixed multipoles:
  | Hartree multipole sum: apparent total charge =   0.377825E-02
  Summing up the Hartree potential.
  Time summed over all CPUs for potential: real work        0.763 s, elapsed        0.881 s
  | RMS charge density error from multipole expansion :   0.107309E-01
  | Average real-space part of the electrostatic potential :      0.30246018 eV

  Integrating Hamiltonian matrix: batch-based integration.
  Time summed over all CPUs for integration: real work        1.160 s, elapsed        1.349 s

  Updating Kohn-Sham eigenvalues, eigenvectors, occupation numbers, and Fermi level.
  Solving generalized eigenproblem
  Determining occupation numbers for Kohn-Sham eigenstates.
  | Chemical potential (Fermi level) in eV                 : -.53798496E+01
  | Error in electron count due to remaining E_F inaccuracy: 0.00000000E+00
  | Maximum occupation number of highest empty state:  0.00E+00

  What follows are estimated values for band gap, HOMO, LUMO, etc.
  | They are estimated on a discrete k-point grid and not necessarily exact.
  | For converged numbers, create a DOS and/or band structure plot on a denser k-grid.

  Highest occupied state (VBM) at     -5.88777015 eV (relative to internal zero)
  | Occupation number:      2.00000000
  | K-point:       1 at    0.000000    0.000000    0.000000 (in units of recip. lattice)

  Lowest unoccupied state (CBM) at    -5.32088292 eV (relative to internal zero)
  | Occupation number:      0.00000000
  | K-point:      30 at    0.000000    0.625000    0.625000 (in units of recip. lattice)

  ESTIMATED overall HOMO-LUMO gap:      0.56688723 eV between HOMO at k-point 1 and LUMO at k-point 30
  | This appears to be an indirect band gap.
  | Smallest direct gap :      2.57977074 eV for k_point 1 at    0.000000    0.625000    0.625000 (in units of recip. lattice)
  The gap value is above 0.2 eV. Unless you are using a very sparse k-point grid,
  this system is most likely an insulator or a semiconductor.

  Total energy components:
  | Sum of eigenvalues            :        -326.30217646 Ha       -8879.13398688 eV
  | XC energy correction          :         -39.59295912 Ha       -1077.37923408 eV
  | XC potential correction       :          52.30736231 Ha        1423.35574789 eV
  | Free-atom electrostatic energy:        -262.69335228 Ha       -7148.24981449 eV
  | Hartree energy correction     :          -0.54092109 Ha         -14.71921174 eV
  | Entropy correction            :           0.00000000 Ha           0.00000000 eV
  | ---------------------------
  | Total energy                  :        -576.82204664 Ha      -15696.12649930 eV
  | Total energy, T -> 0          :        -576.82204664 Ha      -15696.12649930 eV  <-- do not rely on this value for anything but (periodic) metals
  | Electronic free energy        :        -576.82204664 Ha      -15696.12649930 eV

  Derived energy quantities:
  | Kinetic energy                :         575.39887380 Ha       15657.39999581 eV
  | Electrostatic energy          :       -1112.62796132 Ha      -30276.14726103 eV
  | Energy correction for multipole
  | error in Hartree potential    :           0.01404359 Ha           0.38214561 eV
  | Sum of eigenvalues per atom                           :       -4439.56699344 eV
  | Total energy (T->0) per atom                          :       -7848.06324965 eV  <-- do not rely on this value for anything but (periodic) metals
  | Electronic free energy per atom                       :       -7848.06324965 eV

  Self-consistency convergence accuracy:
  | Change of charge density      :  0.1284E-01
  | Change of sum of eigenvalues  : -0.5556E+01 eV
  | Change of total energy        :  0.7109E-02 eV

  End self-consistency iteration #     3       :  max(cpu_time)    wall_clock(cpu1)
  | Time for this iteration                    :        2.060 s           2.102 s
  | Charge density update                      :        0.700 s           0.721 s
  | Density mixing & preconditioning           :        0.040 s           0.058 s
  | Hartree multipole update                   :        0.010 s           0.002 s
  | Hartree multipole summation                :        0.440 s           0.450 s
  | Integration                                :        0.670 s           0.676 s
  | Solution of K.-S. eqns.                    :        0.190 s           0.194 s
  | Total energy evaluation                    :        0.000 s           0.000 s
------------------------------------------------------------

------------------------------------------------------------
          Begin self-consistency iteration #    4

  Date     :  20160203, Time     :  151005.029
------------------------------------------------------------
  Evaluating new KS density using the density matrix
  Evaluating density matrix
  Time summed over all CPUs for getting density from density matrix: real work        1.172 s, elapsed        1.367 s
  Integration grid: deviation in total charge (<rho> - N_e) =   4.263256E-14
  Pulay mixing of updated and previous charge densities.

  Evaluating partitioned Hartree potential by multipole expansion.
  | Analytical far-field extrapolation by fixed multipoles:
  | Hartree multipole sum: apparent total charge =   0.426228E-02
  Summing up the Hartree potential.
  Time summed over all CPUs for potential: real work        0.780 s, elapsed        0.916 s
  | RMS charge density error from multipole expansion :   0.112084E-01
  | Average real-space part of the electrostatic potential :      0.31165124 eV

  Integrating Hamiltonian matrix: batch-based integration.
  Time summed over all CPUs for integration: real work        1.151 s, elapsed        1.345 s

  Updating Kohn-Sham eigenvalues, eigenvectors, occupation numbers, and Fermi level.
  Solving generalized eigenproblem
  Determining occupation numbers for Kohn-Sham eigenstates.
  | Chemical potential (Fermi level) in eV                 : -.53856650E+01
  | Error in electron count due to remaining E_F inaccuracy: 0.00000000E+00
  | Maximum occupation number of highest empty state:  0.00E+00

  What follows are estimated values for band gap, HOMO, LUMO, etc.
  | They are estimated on a discrete k-point grid and not necessarily exact.
  | For converged numbers, create a DOS and/or band structure plot on a denser k-grid.

  Highest occupied state (VBM) at     -5.86985180 eV (relative to internal zero)
  | Occupation number:      2.00000000
  | K-point:       1 at    0.000000    0.000000    0.000000 (in units of recip. lattice)

  Lowest unoccupied state (CBM) at    -5.31392052 eV (relative to internal zero)
  | Occupation number:      0.00000000
  | K-point:     133 at    0.375000    0.000000    0.375000 (in units of recip. lattice)

  ESTIMATED overall HOMO-LUMO gap:      0.55593128 eV between HOMO at k-point 1 and LUMO at k-point 133
  | This appears to be an indirect band gap.
  | Smallest direct gap :      2.57043286 eV for k_point 1 at    0.375000    0.000000    0.375000 (in units of recip. lattice)
  The gap value is above 0.2 eV. Unless you are using a very sparse k-point grid,
  this system is most likely an insulator or a semiconductor.

  Total energy components:
  | Sum of eigenvalues            :        -326.28569285 Ha       -8878.68544506 eV
  | XC energy correction          :         -39.59527601 Ha       -1077.44227998 eV
  | XC potential correction       :          52.31042321 Ha        1423.43903928 eV
  | Free-atom electrostatic energy:        -262.69335228 Ha       -7148.24981449 eV
  | Hartree energy correction     :          -0.55814006 Ha         -15.18776380 eV
  | Entropy correction            :           0.00000000 Ha           0.00000000 eV
  | ---------------------------
  | Total energy                  :        -576.82203800 Ha      -15696.12626404 eV
  | Total energy, T -> 0          :        -576.82203800 Ha      -15696.12626404 eV  <-- do not rely on this value for anything but (periodic) metals
  | Electronic free energy        :        -576.82203800 Ha      -15696.12626404 eV

  Derived energy quantities:
  | Kinetic energy                :         575.41525699 Ha       15657.84580522 eV
  | Electrostatic energy          :       -1112.64201898 Ha      -30276.52978928 eV
  | Energy correction for multipole
  | error in Hartree potential    :           0.01470460 Ha           0.40013244 eV
  | Sum of eigenvalues per atom                           :       -4439.34272253 eV
  | Total energy (T->0) per atom                          :       -7848.06313202 eV  <-- do not rely on this value for anything but (periodic) metals
  | Electronic free energy per atom                       :       -7848.06313202 eV

  Self-consistency convergence accuracy:
  | Change of charge density      :  0.3183E-02
  | Change of sum of eigenvalues  :  0.4485E+00 eV
  | Change of total energy        :  0.2353E-03 eV

  End self-consistency iteration #     4       :  max(cpu_time)    wall_clock(cpu1)
  | Time for this iteration                    :        2.090 s           2.194 s
  | Charge density update                      :        0.700 s           0.724 s
  | Density mixing & preconditioning           :        0.050 s           0.058 s
  | Hartree multipole update                   :        0.010 s           0.003 s
  | Hartree multipole summation                :        0.450 s           0.463 s
  | Integration                                :        0.650 s           0.673 s
  | Solution of K.-S. eqns.                    :        0.210 s           0.273 s
  | Total energy evaluation                    :        0.000 s           0.000 s
------------------------------------------------------------

------------------------------------------------------------
          Begin self-consistency iteration #    5

  Date     :  20160203, Time     :  151007.223
------------------------------------------------------------
  Evaluating new KS density using the density matrix
  Evaluating density matrix
  Time summed over all CPUs for getting density from density matrix: real work        1.466 s, elapsed        2.005 s
  Integration grid: deviation in total charge (<rho> - N_e) =   1.421085E-14
  Pulay mixing of updated and previous charge densities.

  Evaluating partitioned Hartree potential by multipole expansion.
  | Analytical far-field extrapolation by fixed multipoles:
  | Hartree multipole sum: apparent total charge =   0.456580E-02
  Summing up the Hartree potential.
  Time summed over all CPUs for potential: real work        0.749 s, elapsed        0.861 s
  | RMS charge density error from multipole expansion :   0.109614E-01
  | Average real-space part of the electrostatic potential :      0.29894635 eV

  Integrating Hamiltonian matrix: batch-based integration.
  Time summed over all CPUs for integration: real work        1.143 s, elapsed        1.340 s

  Updating Kohn-Sham eigenvalues, eigenvectors, occupation numbers, and Fermi level.
  Solving generalized eigenproblem
  Determining occupation numbers for Kohn-Sham eigenstates.
  | Chemical potential (Fermi level) in eV                 : -.53763798E+01
  | Error in electron count due to remaining E_F inaccuracy: 0.00000000E+00
  | Maximum occupation number of highest empty state:  0.00E+00

  What follows are estimated values for band gap, HOMO, LUMO, etc.
  | They are estimated on a discrete k-point grid and not necessarily exact.
  | For converged numbers, create a DOS and/or band structure plot on a denser k-grid.

  Highest occupied state (VBM) at     -5.88957233 eV (relative to internal zero)
  | Occupation number:      2.00000000
  | K-point:       1 at    0.000000    0.000000    0.000000 (in units of recip. lattice)

  Lowest unoccupied state (CBM) at    -5.32001814 eV (relative to internal zero)
  | Occupation number:      0.00000000
  | K-point:      30 at    0.000000    0.625000    0.625000 (in units of recip. lattice)

  ESTIMATED overall HOMO-LUMO gap:      0.56955419 eV between HOMO at k-point 1 and LUMO at k-point 30
  | This appears to be an indirect band gap.
  | Smallest direct gap :      2.57978790 eV for k_point 1 at    0.000000    0.625000    0.625000 (in units of recip. lattice)
  The gap value is above 0.2 eV. Unless you are using a very sparse k-point grid,
  this system is most likely an insulator or a semiconductor.

  Total energy components:
  | Sum of eigenvalues            :        -326.31395062 Ha       -8879.45437796 eV
  | XC energy correction          :         -39.59348717 Ha       -1077.39360300 eV
  | XC potential correction       :          52.30807791 Ha        1423.37522038 eV
  | Free-atom electrostatic energy:        -262.69335228 Ha       -7148.24981449 eV
  | Hartree energy correction     :          -0.52930106 Ha         -14.40301469 eV
  | Entropy correction            :           0.00000000 Ha           0.00000000 eV
  | ---------------------------
  | Total energy                  :        -576.82201322 Ha      -15696.12558976 eV
  | Total energy, T -> 0          :        -576.82201322 Ha      -15696.12558976 eV  <-- do not rely on this value for anything but (periodic) metals
  | Electronic free energy        :        -576.82201322 Ha      -15696.12558976 eV

  Derived energy quantities:
  | Kinetic energy                :         575.42867074 Ha       15658.21081175 eV
  | Electrostatic energy          :       -1112.65719679 Ha      -30276.94279850 eV
  | Energy correction for multipole
  | error in Hartree potential    :           0.01440299 Ha           0.39192530 eV
  | Sum of eigenvalues per atom                           :       -4439.72718898 eV
  | Total energy (T->0) per atom                          :       -7848.06279488 eV  <-- do not rely on this value for anything but (periodic) metals
  | Electronic free energy per atom                       :       -7848.06279488 eV

  Self-consistency convergence accuracy:
  | Change of charge density      :  0.3175E-02
  | Change of sum of eigenvalues  : -0.7689E+00 eV
  | Change of total energy        :  0.6743E-03 eV

  End self-consistency iteration #     5       :  max(cpu_time)    wall_clock(cpu1)
  | Time for this iteration                    :        2.380 s           2.408 s
  | Charge density update                      :        1.030 s           1.047 s
  | Density mixing & preconditioning           :        0.040 s           0.057 s
  | Hartree multipole update                   :        0.010 s           0.002 s
  | Hartree multipole summation                :        0.430 s           0.440 s
  | Integration                                :        0.670 s           0.671 s
  | Solution of K.-S. eqns.                    :        0.190 s           0.190 s
  | Total energy evaluation                    :        0.000 s           0.001 s
------------------------------------------------------------

------------------------------------------------------------
          Begin self-consistency iteration #    6

  Date     :  20160203, Time     :  151009.631
------------------------------------------------------------
  Evaluating new KS density using the density matrix
  Evaluating density matrix
  Time summed over all CPUs for getting density from density matrix: real work        1.142 s, elapsed        1.340 s
  Integration grid: deviation in total charge (<rho> - N_e) =  -3.552714E-15
  Pulay mixing of updated and previous charge densities.

  Evaluating partitioned Hartree potential by multipole expansion.
  | Analytical far-field extrapolation by fixed multipoles:
  | Hartree multipole sum: apparent total charge =   0.517768E-02
  Summing up the Hartree potential.
  Time summed over all CPUs for potential: real work        0.757 s, elapsed        0.876 s
  | RMS charge density error from multipole expansion :   0.109801E-01
  | Average real-space part of the electrostatic potential :      0.29874605 eV

  Integrating Hamiltonian matrix: batch-based integration.
  Time summed over all CPUs for integration: real work        1.135 s, elapsed        1.319 s

  Updating Kohn-Sham eigenvalues, eigenvectors, occupation numbers, and Fermi level.
  Solving generalized eigenproblem
  Determining occupation numbers for Kohn-Sham eigenstates.
  | Chemical potential (Fermi level) in eV                 : -.53757791E+01
  | Error in electron count due to remaining E_F inaccuracy: 0.00000000E+00
  | Maximum occupation number of highest empty state:  0.00E+00

  What follows are estimated values for band gap, HOMO, LUMO, etc.
  | They are estimated on a discrete k-point grid and not necessarily exact.
  | For converged numbers, create a DOS and/or band structure plot on a denser k-grid.

  Highest occupied state (VBM) at     -5.88859886 eV (relative to internal zero)
  | Occupation number:      2.00000000
  | K-point:       1 at    0.000000    0.000000    0.000000 (in units of recip. lattice)

  Lowest unoccupied state (CBM) at    -5.31944919 eV (relative to internal zero)
  | Occupation number:      0.00000000
  | K-point:      30 at    0.000000    0.625000    0.625000 (in units of recip. lattice)

  ESTIMATED overall HOMO-LUMO gap:      0.56914967 eV between HOMO at k-point 1 and LUMO at k-point 30
  | This appears to be an indirect band gap.
  | Smallest direct gap :      2.57941320 eV for k_point 1 at    0.000000    0.625000    0.625000 (in units of recip. lattice)
  The gap value is above 0.2 eV. Unless you are using a very sparse k-point grid,
  this system is most likely an insulator or a semiconductor.

  Total energy components:
  | Sum of eigenvalues            :        -326.31394015 Ha       -8879.45409309 eV
  | XC energy correction          :         -39.59322525 Ha       -1077.38647584 eV
  | XC potential correction       :          52.30773401 Ha        1423.36586235 eV
  | Free-atom electrostatic energy:        -262.69335228 Ha       -7148.24981449 eV
  | Hartree energy correction     :          -0.52922961 Ha         -14.40107031 eV
  | Entropy correction            :           0.00000000 Ha           0.00000000 eV
  | ---------------------------
  | Total energy                  :        -576.82201328 Ha      -15696.12559138 eV
  | Total energy, T -> 0          :        -576.82201328 Ha      -15696.12559138 eV  <-- do not rely on this value for anything but (periodic) metals
  | Electronic free energy        :        -576.82201328 Ha      -15696.12559138 eV

  Derived energy quantities:
  | Kinetic energy                :         575.42654293 Ha       15658.15291107 eV
  | Electrostatic energy          :       -1112.65533096 Ha      -30276.89202661 eV
  | Energy correction for multipole
  | error in Hartree potential    :           0.01443747 Ha           0.39286368 eV
  | Sum of eigenvalues per atom                           :       -4439.72704655 eV
  | Total energy (T->0) per atom                          :       -7848.06279569 eV  <-- do not rely on this value for anything but (periodic) metals
  | Electronic free energy per atom                       :       -7848.06279569 eV

  Self-consistency convergence accuracy:
  | Change of charge density      :  0.1542E-03
  | Change of sum of eigenvalues  :  0.2849E-03 eV
  | Change of total energy        : -0.1626E-05 eV

  End self-consistency iteration #     6       :  max(cpu_time)    wall_clock(cpu1)
  | Time for this iteration                    :        2.050 s           2.068 s
  | Charge density update                      :        0.700 s           0.710 s
  | Density mixing & preconditioning           :        0.050 s           0.057 s
  | Hartree multipole update                   :        0.000 s           0.002 s
  | Hartree multipole summation                :        0.440 s           0.443 s
  | Integration                                :        0.650 s           0.660 s
  | Solution of K.-S. eqns.                    :        0.200 s           0.196 s
  | Total energy evaluation                    :        0.000 s           0.000 s
------------------------------------------------------------

------------------------------------------------------------
          Begin self-consistency iteration #    7

  Date     :  20160203, Time     :  151011.699
------------------------------------------------------------
  Evaluating new KS density using the density matrix
  Evaluating density matrix
  Time summed over all CPUs for getting density from density matrix: real work        1.135 s, elapsed        1.325 s
  Integration grid: deviation in total charge (<rho> - N_e) =   1.421085E-14
  Pulay mixing of updated and previous charge densities.

  Evaluating partitioned Hartree potential by multipole expansion.
  | Analytical far-field extrapolation by fixed multipoles:
  | Hartree multipole sum: apparent total charge =   0.522483E-02
  Summing up the Hartree potential.
  Time summed over all CPUs for potential: real work        0.760 s, elapsed        0.874 s
  | RMS charge density error from multipole expansion :   0.109783E-01
  | Average real-space part of the electrostatic potential :      0.29876840 eV

  Integrating Hamiltonian matrix: batch-based integration.
  Time summed over all CPUs for integration: real work        1.149 s, elapsed        1.332 s

  Updating Kohn-Sham eigenvalues, eigenvectors, occupation numbers, and Fermi level.
  Solving generalized eigenproblem
  Determining occupation numbers for Kohn-Sham eigenstates.
  | Chemical potential (Fermi level) in eV                 : -.53757514E+01
  | Error in electron count due to remaining E_F inaccuracy: 0.00000000E+00
  | Maximum occupation number of highest empty state:  0.00E+00

  What follows are estimated values for band gap, HOMO, LUMO, etc.
  | They are estimated on a discrete k-point grid and not necessarily exact.
  | For converged numbers, create a DOS and/or band structure plot on a denser k-grid.

  Highest occupied state (VBM) at     -5.88849747 eV (relative to internal zero)
  | Occupation number:      2.00000000
  | K-point:       1 at    0.000000    0.000000    0.000000 (in units of recip. lattice)

  Lowest unoccupied state (CBM) at    -5.31940889 eV (relative to internal zero)
  | Occupation number:      0.00000000
  | K-point:      30 at    0.000000    0.625000    0.625000 (in units of recip. lattice)

  ESTIMATED overall HOMO-LUMO gap:      0.56908859 eV between HOMO at k-point 1 and LUMO at k-point 30
  | This appears to be an indirect band gap.
  | Smallest direct gap :      2.57938571 eV for k_point 1 at    0.000000    0.625000    0.625000 (in units of recip. lattice)
  The gap value is above 0.2 eV. Unless you are using a very sparse k-point grid,
  this system is most likely an insulator or a semiconductor.

  Total energy components:
  | Sum of eigenvalues            :        -326.31342423 Ha       -8879.44005412 eV
  | XC energy correction          :         -39.59325190 Ha       -1077.38720095 eV
  | XC potential correction       :          52.30776965 Ha        1423.36683240 eV
  | Free-atom electrostatic energy:        -262.69335228 Ha       -7148.24981449 eV
  | Hartree energy correction     :          -0.52975487 Ha         -14.41536359 eV
  | Entropy correction            :           0.00000000 Ha           0.00000000 eV
  | ---------------------------
  | Total energy                  :        -576.82201362 Ha      -15696.12560075 eV
  | Total energy, T -> 0          :        -576.82201362 Ha      -15696.12560075 eV  <-- do not rely on this value for anything but (periodic) metals
  | Electronic free energy        :        -576.82201362 Ha      -15696.12560075 eV

  Derived energy quantities:
  | Kinetic energy                :         575.42724899 Ha       15658.17212395 eV
  | Electrostatic energy          :       -1112.65601071 Ha      -30276.91052376 eV
  | Energy correction for multipole
  | error in Hartree potential    :           0.01443612 Ha           0.39282687 eV
  | Sum of eigenvalues per atom                           :       -4439.72002706 eV
  | Total energy (T->0) per atom                          :       -7848.06280037 eV  <-- do not rely on this value for anything but (periodic) metals
  | Electronic free energy per atom                       :       -7848.06280037 eV

  Self-consistency convergence accuracy:
  | Change of charge density      :  0.4558E-04
  | Change of sum of eigenvalues  :  0.1404E-01 eV
  | Change of total energy        : -0.9363E-05 eV

  End self-consistency iteration #     7       :  max(cpu_time)    wall_clock(cpu1)
  | Time for this iteration                    :        2.050 s           2.069 s
  | Charge density update                      :        0.700 s           0.703 s
  | Density mixing & preconditioning           :        0.040 s           0.057 s
  | Hartree multipole update                   :        0.010 s           0.002 s
  | Hartree multipole summation                :        0.430 s           0.442 s
  | Integration                                :        0.660 s           0.667 s
  | Solution of K.-S. eqns.                    :        0.200 s           0.197 s
  | Total energy evaluation                    :        0.000 s           0.000 s
------------------------------------------------------------

------------------------------------------------------------
          Begin self-consistency iteration #    8

  Date     :  20160203, Time     :  151013.768
------------------------------------------------------------
  Evaluating new KS density using the density matrix
  Evaluating density matrix
  Time summed over all CPUs for getting density from density matrix: real work        1.207 s, elapsed        1.381 s
  Integration grid: deviation in total charge (<rho> - N_e) =  -2.131628E-14
  Pulay mixing of updated and previous charge densities.

  Evaluating partitioned Hartree potential by multipole expansion.
  | Analytical far-field extrapolation by fixed multipoles:
  | Hartree multipole sum: apparent total charge =   0.525490E-02
  Summing up the Hartree potential.
  Time summed over all CPUs for potential: real work        0.772 s, elapsed        0.883 s
  | RMS charge density error from multipole expansion :   0.109771E-01
  | Average real-space part of the electrostatic potential :      0.29867070 eV

  Integrating Hamiltonian matrix: batch-based integration.
  Time summed over all CPUs for integration: real work        1.224 s, elapsed        1.381 s

  Updating Kohn-Sham eigenvalues, eigenvectors, occupation numbers, and Fermi level.
  Solving generalized eigenproblem
  Determining occupation numbers for Kohn-Sham eigenstates.
  | Chemical potential (Fermi level) in eV                 : -.53757664E+01
  | Error in electron count due to remaining E_F inaccuracy: 0.00000000E+00
  | Maximum occupation number of highest empty state:  0.00E+00

  What follows are estimated values for band gap, HOMO, LUMO, etc.
  | They are estimated on a discrete k-point grid and not necessarily exact.
  | For converged numbers, create a DOS and/or band structure plot on a denser k-grid.

  Highest occupied state (VBM) at     -5.88857361 eV (relative to internal zero)
  | Occupation number:      2.00000000
  | K-point:       1 at    0.000000    0.000000    0.000000 (in units of recip. lattice)

  Lowest unoccupied state (CBM) at    -5.31942434 eV (relative to internal zero)
  | Occupation number:      0.00000000
  | K-point:      30 at    0.000000    0.625000    0.625000 (in units of recip. lattice)

  ESTIMATED overall HOMO-LUMO gap:      0.56914926 eV between HOMO at k-point 1 and LUMO at k-point 30
  | This appears to be an indirect band gap.
  | Smallest direct gap :      2.57943080 eV for k_point 1 at    0.000000    0.625000    0.625000 (in units of recip. lattice)
  The gap value is above 0.2 eV. Unless you are using a very sparse k-point grid,
  this system is most likely an insulator or a semiconductor.

  Total energy components:
  | Sum of eigenvalues            :        -326.31347452 Ha       -8879.44142272 eV
  | XC energy correction          :         -39.59323726 Ha       -1077.38680264 eV
  | XC potential correction       :          52.30775056 Ha        1423.36631290 eV
  | Free-atom electrostatic energy:        -262.69335228 Ha       -7148.24981449 eV
  | Hartree energy correction     :          -0.52970012 Ha         -14.41387360 eV
  | Entropy correction            :           0.00000000 Ha           0.00000000 eV
  | ---------------------------
  | Total energy                  :        -576.82201362 Ha      -15696.12560055 eV
  | Total energy, T -> 0          :        -576.82201362 Ha      -15696.12560055 eV  <-- do not rely on this value for anything but (periodic) metals
  | Electronic free energy        :        -576.82201362 Ha      -15696.12560055 eV

  Derived energy quantities:
  | Kinetic energy                :         575.42730915 Ha       15658.17376101 eV
  | Electrostatic energy          :       -1112.65608550 Ha      -30276.91255892 eV
  | Energy correction for multipole
  | error in Hartree potential    :           0.01443408 Ha           0.39277126 eV
  | Sum of eigenvalues per atom                           :       -4439.72071136 eV
  | Total energy (T->0) per atom                          :       -7848.06280028 eV  <-- do not rely on this value for anything but (periodic) metals
  | Electronic free energy per atom                       :       -7848.06280028 eV

  Self-consistency convergence accuracy:
  | Change of charge density      :  0.1590E-04
  | Change of sum of eigenvalues  : -0.1369E-02 eV
  | Change of total energy        :  0.1977E-06 eV

  End self-consistency iteration #     8       :  max(cpu_time)    wall_clock(cpu1)
  | Time for this iteration                    :        1.910 s           2.132 s
  | Charge density update                      :        0.650 s           0.731 s
  | Density mixing & preconditioning           :        0.040 s           0.057 s
  | Hartree multipole update                   :        0.000 s           0.002 s
  | Hartree multipole summation                :        0.400 s           0.448 s
  | Integration                                :        0.620 s           0.692 s
  | Solution of K.-S. eqns.                    :        0.180 s           0.201 s
  | Total energy evaluation                    :        0.000 s           0.001 s
------------------------------------------------------------

------------------------------------------------------------
          Begin self-consistency iteration #    9

  Date     :  20160203, Time     :  151015.900
------------------------------------------------------------
  Evaluating new KS density using the density matrix
  Evaluating density matrix
  Time summed over all CPUs for getting density from density matrix: real work        1.215 s, elapsed        1.381 s
  Integration grid: deviation in total charge (<rho> - N_e) =  -3.552714E-14
  Pulay mixing of updated and previous charge densities.

  Evaluating partitioned Hartree potential by multipole expansion.
  | Analytical far-field extrapolation by fixed multipoles:
  | Hartree multipole sum: apparent total charge =   0.525683E-02
  Summing up the Hartree potential.
  Time summed over all CPUs for potential: real work        0.764 s, elapsed        0.881 s
  | RMS charge density error from multipole expansion :   0.109771E-01
  | Average real-space part of the electrostatic potential :      0.29866563 eV

  Integrating Hamiltonian matrix: batch-based integration.
  Time summed over all CPUs for integration: real work        1.355 s, elapsed        1.564 s

  Updating Kohn-Sham eigenvalues, eigenvectors, occupation numbers, and Fermi level.
  Solving generalized eigenproblem
  Determining occupation numbers for Kohn-Sham eigenstates.
  | Chemical potential (Fermi level) in eV                 : -.53757665E+01
  | Error in electron count due to remaining E_F inaccuracy: 0.00000000E+00
  | Maximum occupation number of highest empty state:  0.00E+00

  What follows are estimated values for band gap, HOMO, LUMO, etc.
  | They are estimated on a discrete k-point grid and not necessarily exact.
  | For converged numbers, create a DOS and/or band structure plot on a denser k-grid.

  Highest occupied state (VBM) at     -5.88857620 eV (relative to internal zero)
  | Occupation number:      2.00000000
  | K-point:       1 at    0.000000    0.000000    0.000000 (in units of recip. lattice)

  Lowest unoccupied state (CBM) at    -5.31942444 eV (relative to internal zero)
  | Occupation number:      0.00000000
  | K-point:      30 at    0.000000    0.625000    0.625000 (in units of recip. lattice)

  ESTIMATED overall HOMO-LUMO gap:      0.56915176 eV between HOMO at k-point 1 and LUMO at k-point 30
  | This appears to be an indirect band gap.
  | Smallest direct gap :      2.57943248 eV for k_point 1 at    0.000000    0.625000    0.625000 (in units of recip. lattice)
  The gap value is above 0.2 eV. Unless you are using a very sparse k-point grid,
  this system is most likely an insulator or a semiconductor.

  Total energy components:
  | Sum of eigenvalues            :        -326.31347907 Ha       -8879.44154656 eV
  | XC energy correction          :         -39.59323615 Ha       -1077.38677237 eV
  | XC potential correction       :          52.30774910 Ha        1423.36627322 eV
  | Free-atom electrostatic energy:        -262.69335228 Ha       -7148.24981449 eV
  | Hartree energy correction     :          -0.52969522 Ha         -14.41374034 eV
  | Entropy correction            :           0.00000000 Ha           0.00000000 eV
  | ---------------------------
  | Total energy                  :        -576.82201361 Ha      -15696.12560053 eV
  | Total energy, T -> 0          :        -576.82201361 Ha      -15696.12560053 eV  <-- do not rely on this value for anything but (periodic) metals
  | Electronic free energy        :        -576.82201361 Ha      -15696.12560053 eV

  Derived energy quantities:
  | Kinetic energy                :         575.42730465 Ha       15658.17363865 eV
  | Electrostatic energy          :       -1112.65608212 Ha      -30276.91246682 eV
  | Energy correction for multipole
  | error in Hartree potential    :           0.01443404 Ha           0.39277011 eV
  | Sum of eigenvalues per atom                           :       -4439.72077328 eV
  | Total energy (T->0) per atom                          :       -7848.06280027 eV  <-- do not rely on this value for anything but (periodic) metals
  | Electronic free energy per atom                       :       -7848.06280027 eV

  Self-consistency convergence accuracy:
  | Change of charge density      :  0.5403E-06
  | Change of sum of eigenvalues  : -0.1238E-03 eV
  | Change of total energy        :  0.1932E-07 eV

  Preliminary charge convergence reached. Turning off preconditioner.

  Writing Kohn-Sham eigenvalues.
  K-point:       1 at    0.000000    0.000000    0.000000 (in units of recip. lattice)

  State    Occupation    Eigenvalue [Ha]    Eigenvalue [eV]
      1       2.00000         -65.169387        -1773.34924
      2       2.00000         -65.169387        -1773.34924
      3       2.00000          -5.071869         -138.01258
      4       2.00000          -5.071546         -138.00380
      5       2.00000          -3.510816          -95.53415
      6       2.00000          -3.510816          -95.53415
      7       2.00000          -3.510816          -95.53415
      8       2.00000          -3.510160          -95.51631
      9       2.00000          -3.510160          -95.51631
     10       2.00000          -3.510160          -95.51631
     11       2.00000          -0.656410          -17.86182
     12       2.00000          -0.216401           -5.88858
     13       2.00000          -0.216401           -5.88858
     14       2.00000          -0.216401           -5.88858
     15       0.00000          -0.121609           -3.30914
     16       0.00000          -0.121609           -3.30914
     17       0.00000          -0.121609           -3.30914
     18       0.00000          -0.086534           -2.35470
     19       0.00000           0.073554            2.00150
     20       0.00000           0.073554            2.00150

  What follows are estimated values for band gap, HOMO, LUMO, etc.
  | They are estimated on a discrete k-point grid and not necessarily exact.
  | For converged numbers, create a DOS and/or band structure plot on a denser k-grid.

  Highest occupied state (VBM) at     -5.88857620 eV (relative to internal zero)
  | Occupation number:      2.00000000
  | K-point:       1 at    0.000000    0.000000    0.000000 (in units of recip. lattice)

  Lowest unoccupied state (CBM) at    -5.31942444 eV (relative to internal zero)
  | Occupation number:      0.00000000
  | K-point:      30 at    0.000000    0.625000    0.625000 (in units of recip. lattice)

  ESTIMATED overall HOMO-LUMO gap:      0.56915176 eV between HOMO at k-point 1 and LUMO at k-point 30
  | This appears to be an indirect band gap.
  | Smallest direct gap :      2.57943248 eV for k_point 1 at    0.000000    0.625000    0.625000 (in units of recip. lattice)
  The gap value is above 0.2 eV. Unless you are using a very sparse k-point grid,
  this system is most likely an insulator or a semiconductor.

  Self-consistency cycle converged.

  End self-consistency iteration #     9       :  max(cpu_time)    wall_clock(cpu1)
  | Time for this iteration                    :        1.960 s           2.229 s
  | Charge density update                      :        0.680 s           0.730 s
  | Density mixing                             :        0.050 s           0.058 s
  | Hartree multipole update                   :        0.010 s           0.002 s
  | Hartree multipole summation                :        0.450 s           0.450 s
  | Integration                                :        0.600 s           0.791 s
  | Solution of K.-S. eqns.                    :        0.170 s           0.197 s
  | Total energy evaluation                    :        0.000 s           0.001 s
------------------------------------------------------------

  Energy and forces in a compact form:
  | Total energy uncorrected      :         -0.156961256005308E+05 eV
  | Total energy corrected        :         -0.156961256005308E+05 eV  <-- do not rely on this value for anything but (periodic) metals
  | Electronic free energy        :         -0.156961256005308E+05 eV

  ------------------------------------ 
  Start decomposition of the XC Energy 
  ------------------------------------ 
  Hartree-Fock part   :          0.000000000 Ha              0.000000000 eV
  ------------------------------------ 
  X Energy            :        -37.448726562 Ha          -1019.031697501 eV
  C Energy GGA        :         -2.144509584 Ha            -58.355074866 eV
  Total XC Energy     :        -39.593236146 Ha          -1077.386772368 eV
  LDA X and C from self-consistent density 
  X Energy LDA        :        -37.448726562 Ha          -1019.031697501 eV
  C Energy LDA        :         -2.144509584 Ha            -58.355074866 eV
  ------------------------------------ 
  End decomposition of the XC Energy 
  ------------------------------------ 

  -------------------------------------------------------------------
  Writing the requested band structure output:
  -------------------------------------------------------------------

  Integrating Hamiltonian matrix: batch-based integration.
  Time summed over all CPUs for integration: real work        1.195 s, elapsed        1.365 s

  Treating all   15 k-points in band plot segment #   1:


  "Band gap" along reciprocal space direction number:    1
  | Lowest unoccupied state:      -4.33482866 eV
  | Highest occupied state :      -5.88857620 eV
  | Energy difference      :       1.55374755 eV


  Treating all   15 k-points in band plot segment #   2:


  "Band gap" along reciprocal space direction number:    2
  | Lowest unoccupied state:      -5.36603956 eV
  | Highest occupied state :      -5.88857620 eV
  | Energy difference      :       0.52253665 eV


  Treating all   15 k-points in band plot segment #   3:


  "Band gap" along reciprocal space direction number:    3
  | Lowest unoccupied state:      -5.22614665 eV
  | Highest occupied state :      -8.75800427 eV
  | Energy difference      :       3.53185762 eV


  Treating all   15 k-points in band plot segment #   4:


  "Band gap" along reciprocal space direction number:    4
  | Lowest unoccupied state:      -4.70887369 eV
  | Highest occupied state :      -8.32788205 eV
  | Energy difference      :       3.61900837 eV

  "Band gap" of total set of bands:
  | Lowest unoccupied state:      -5.36603956 eV
  | Highest occupied state :      -5.88857620 eV
  | Energy difference      :       0.52253665 eV


  Band Structure                                          :  max(cpu_time) wall_clock(cpu1)
  | Total Time                                            :          0.540            0.780
  ------------------------------------------------------------

------------------------------------------------------------------------------
  Final output of selected total energy values:

  The following output summarizes some interesting total energy values
  at the end of a run (AFTER all relaxation, molecular dynamics, etc.).

  | Total energy of the DFT / Hartree-Fock s.c.f. calculation      :         -15696.125600531 eV
  | Final zero-broadening corrected energy (caution - metals only) :         -15696.125600531 eV
  | For reference only, the value of 1 Hartree used in FHI-aims is :             27.211384500 eV

  Before relying on these values, please be sure to understand exactly which
  total energy value is referred to by a given number. Different objects may
  all carry the same name 'total energy'. Definitions:

  Total energy of the DFT / Hartree-Fock s.c.f. calculation:
  | Note that this energy does not include ANY quantities calculated after the
  | s.c.f. cycle, in particular not ANY RPA, MP2, etc. many-body perturbation terms.

  Final zero-broadening corrected energy:
  | For metallic systems only, a broadening of the occupation numbers at the Fermi
  | level can be extrapolated back to zero broadening by an electron-gas inspired
  | formula. For all systems that are not real metals, this value can be
  | meaningless and should be avoided.

------------------------------------------------------------------------------
  Methods described in the following list of references were used in this FHI-aims run.
  If you publish the results, please make sure to cite these reference if they apply.
  FHI-aims is an academic code, and for our developers (often, Ph.D. students
  and postdocs), scientific credit in the community is essential.
  Thank you for helping us!

  For any use of FHI-aims, please cite:

    Volker Blum, Ralf Gehrke, Felix Hanke, Paula Havu, Ville Havu,
    Xinguo Ren, Karsten Reuter, and Matthias Scheffler
    'Ab initio molecular simulations with numeric atom-centered orbitals'
    Computer Physics Communications 180, 2175-2196 (2009)
    http://dx.doi.org/10.1016/j.cpc.2009.06.022


  For the real-space grid partitioning and parallelization used in this calculation, please cite:

    Ville Havu, Volker Blum, Paula Havu, and Matthias Scheffler,
    'Efficient O(N) integration for all-electron electronic structure calculation'
    'using numerically tabulated basis functions'
    Journal of Computational Physics 228, 8367-8379 (2009).
    http://dx.doi.org/10.1016/j.jcp.2009.08.008

  Of course, there are many other important community references, e.g., those cited in the
  above references. Our list is limited to references that describe implementations in the
  FHI-aims code. The reason is purely practical (length of this list) - please credit others as well.

------------------------------------------------------------
          Leaving FHI-aims.
          Date     :  20160203, Time     :  151018.917

          Computational steps:
          | Number of self-consistency cycles          :            9

          Detailed time accounting                     :  max(cpu_time)    wall_clock(cpu1)
          | Total time                                 :       21.560 s          22.872 s
          | Preparation time                           :        0.180 s           0.219 s
          | Grid partitioning                          :        0.060 s           0.059 s
          | Preloading free-atom quantities on grid    :        0.010 s           0.003 s
          | Free-atom superposition energy             :        0.040 s           0.050 s
          | Total time for integrations                :        6.920 s           7.466 s
          | Total time for solution of K.-S. equations :        2.160 s           2.308 s
          | Total time for density update              :        6.540 s           6.834 s
          | Total time for mixing & preconditioning    :        0.410 s           0.524 s
          | Total time for Hartree multipole update    :        0.060 s           0.019 s
          | Total time for Hartree multipole sum       :        3.830 s           4.053 s
          | Total time for total energy evaluation     :        0.000 s           0.006 s
          | Total time for band structures, DOS        :        0.740 s           0.780 s

          Have a nice day.
------------------------------------------------------------
